ITEM: TIMESTEP
0
ITEM: NUMBER OF ATOMS
2
ITEM: BOX BOUNDS pp pp pp
0.0000000000000000e+00 2.9291934809800000e+00
0.0000000000000000e+00 2.8438771660000000e+00
0.0000000000000000e+00 2.8438771660000000e+00
ITEM: ATOMS x y z fx fy fz
0 0 0 -0.926439 -0.314785 -0.314785
1.4646 1.42194 1.42194 0.926439 0.314785 0.314785
ITEM: TIMESTEP
1
ITEM: NUMBER OF ATOMS
2
ITEM: BOX BOUNDS pp pp pp
0.0000000000000000e+00 2.9291934809800000e+00
0.0000000000000000e+00 2.8438771660000000e+00
0.0000000000000000e+00 2.8438771660000000e+00
ITEM: ATOMS x y z fx fy fz
0 0 0 -0.926439 -0.314785 -0.314785
1.4646 1.42194 1.42194 0.926439 0.314785 0.314785
