ITEM: TIMESTEP
0
ITEM: NUMBER OF ATOMS
16
ITEM: BOX BOUNDS pp pp pp
0.0000000000000000e+00 4.7999999999999998e+00
0.0000000000000000e+00 4.7999999999999998e+00
0.0000000000000000e+00 4.7999999999999998e+00
ITEM: ATOMS x y z fx fy fz
0 0 0 -0.298886 -0.298886 -0.298886
1.2 1.2 1.2 0.155611 0.155611 0.155611
2.4 0 0 0.444356 -0.277031 -0.277031
3.6 1.2 1.2 0.449806 -0.228057 -0.228057
0 2.4 0 -0.277031 0.444356 -0.277031
1.2 3.6 1.2 -0.228057 0.449806 -0.228057
2.4 2.4 0 0.228057 0.228057 -0.449806
3.6 3.6 1.2 0.277031 0.277031 -0.444356
0 0 2.4 -0.277031 -0.277031 0.444356
1.2 1.2 3.6 -0.228057 -0.228057 0.449806
2.4 0 2.4 0.228057 -0.449806 0.228057
3.6 1.2 3.6 0.277031 -0.444356 0.277031
0 2.4 2.4 -0.449806 0.228057 0.228057
1.2 3.6 3.6 -0.444356 0.277031 0.277031
2.4 2.4 2.4 -0.155611 -0.155611 -0.155611
3.6 3.6 3.6 0.298886 0.298886 0.298886
