ITEM: TIMESTEP
0
ITEM: NUMBER OF ATOMS
16
ITEM: BOX BOUNDS pp pp pp
0.0000000000000000e+00 4.7999999999999998e+00
0.0000000000000000e+00 4.7999999999999998e+00
0.0000000000000000e+00 4.7999999999999998e+00
ITEM: ATOMS x y z fx fy fz
0 0 0 8.57273 8.57273 8.57273
1.2 1.2 1.2 5.42257 5.42257 5.42257
2.4 0 0 -10.105 10.5463 10.5463
3.6 1.2 1.2 -27.1261 9.3763 9.3763
0 2.4 0 10.5463 -10.105 10.5463
1.2 3.6 1.2 9.3763 -27.1261 9.3763
2.4 2.4 0 -9.3763 -9.3763 27.1261
3.6 3.6 1.2 -10.5463 -10.5463 10.105
0 0 2.4 10.5463 10.5463 -10.105
1.2 1.2 3.6 9.3763 9.3763 -27.1261
2.4 0 2.4 -9.3763 27.1261 -9.3763
3.6 1.2 3.6 -10.5463 10.105 -10.5463
0 2.4 2.4 27.1261 -9.3763 -9.3763
1.2 3.6 3.6 10.105 -10.5463 -10.5463
2.4 2.4 2.4 -5.42257 -5.42257 -5.42257
3.6 3.6 3.6 -8.57273 -8.57273 -8.57273
