LAMMPS (29 Oct 2020)
atom_style	atomic
units				metal
dimension		3
boundary		p p p

atom_modify	sort 0 0.0

dimension			3
lattice 			bcc 	2.843877166
Lattice spacing in x,y,z = 2.8438772 2.8438772 2.8438772
region				box 	block 0 1 0 1 0 1
create_box		1 		box
Created orthogonal box = (0.0000000 0.0000000 0.0000000) to (2.8438772 2.8438772 2.8438772)
  1 by 1 by 1 MPI processor grid
create_atoms	1 		box
Created 2 atoms
  create_atoms CPU = 0.000 seconds
mass					1 		55.845


#neigh_modify page 200000
#neigh_modify one 4000


#velocity	all create 300.0 87293 loop geom

#pair_style	gnn SchNet 5.0 5.0 128 128 3 128 -3460.825847482401 0.16576383029449515
#pair_coeff	* * /home/lorenzo/Desktop/dev/testing/models/schnet.pt 1 26

#pair_style	lj/cut 5.0
#pair_coeff	* * 0.2007 2.4193

#pair_style meam
#pair_coeff * * /home/lorenzo/Desktop/dev/testing/models/library.Fe.meam Fe /home/lorenzo/Desktop/dev/testing/models/Fe.meam Fe

pair_style	gnn DimeNet 6.5 3.5 128 1 7 8 7 6 -3460.825847482401 0.16576383029449013
pair_coeff	* * /home/lorenzo/Desktop/dev/testing/models/dimenet.pt 1 26

#pair_style  gnn DimeNet 5.0 3.5 128 1 3 8 7 6 -3460.825847482401 0.16576383029449515
#pair_coeff	* * /home/lorenzo/Desktop/dev/testing/models/dimenet_f.pt 1 26

#fix 1 all langevin 100 100 1 435235
#fix	2 all nve

dump 1 all custom 1 dump3 x y z fx fy fz

thermo		1

#minimize	1.0e-6 0.001 1000 10000

run 0
WARNING: No fixes defined, atoms won't move (../verlet.cpp:54)
Neighbor list info ...
  update every 1 steps, delay 10 steps, check yes
  max neighbors/atom: 2000, page size: 100000
  master list distance cutoff = 8.5
  ghost atom cutoff = 8.5
  binsize = 4.25, bins = 1 1 1
  1 neighbor lists, perpetual/occasional/extra = 1 0 0
  (1) pair gnn, perpetual
      attributes: full, newton on, ghost, cut 6.5
      pair build: full/bin/ghost
      stencil: full/ghost/bin/3d
      bin: standard
Per MPI rank memory allocation (min/avg/max) = 4.240 | 4.240 | 4.240 Mbytes
Step Temp E_pair E_mol TotEng Press 
       0            0   -6921.4885            0   -6921.4885   -8006.3961 
Loop time of 3.09944e-06 on 1 procs for 0 steps with 2 atoms

96.8% CPU use with 1 MPI tasks x no OpenMP threads

MPI task timing breakdown:
Section |  min time  |  avg time  |  max time  |%varavg| %total
---------------------------------------------------------------
Pair    | 0          | 0          | 0          |   0.0 |  0.00
Neigh   | 0          | 0          | 0          |   0.0 |  0.00
Comm    | 0          | 0          | 0          |   0.0 |  0.00
Output  | 0          | 0          | 0          |   0.0 |  0.00
Modify  | 0          | 0          | 0          |   0.0 |  0.00
Other   |            | 3.099e-06  |            |       |100.00

Nlocal:        2.00000 ave           2 max           2 min
Histogram: 1 0 0 0 0 0 0 0 0 0
Nghost:        557.000 ave         557 max         557 min
Histogram: 1 0 0 0 0 0 0 0 0 0
Neighs:        0.00000 ave           0 max           0 min
Histogram: 1 0 0 0 0 0 0 0 0 0
FullNghs:      224.000 ave         224 max         224 min
Histogram: 1 0 0 0 0 0 0 0 0 0

Total # of neighbors = 224
Ave neighs/atom = 112.00000
Neighbor list builds = 0
Dangerous builds = 0
Total wall time: 0:00:20
