LAMMPS (29 Oct 2020)
Lattice spacing in x,y,z = 2.8438772 2.8438772 2.8438772
Created orthogonal box = (0.0000000 0.0000000 0.0000000) to (2.8438772 2.8438772 2.8438772)
  1 by 1 by 1 MPI processor grid
Created 2 atoms
  create_atoms CPU = 0.000 seconds
PairGNN
SETTINGS
realcut: 5.000000COEFF
ALLOCATE
WARNING: No fixes defined, atoms won't move (../verlet.cpp:54)
INIT STYLE
INIT ONE
Neighbor list info ...
  update every 1 steps, delay 10 steps, check yes
  max neighbors/atom: 2000, page size: 100000
  master list distance cutoff = 7
  ghost atom cutoff = 7
  binsize = 3.5, bins = 1 1 1
  1 neighbor lists, perpetual/occasional/extra = 1 0 0
  (1) pair gnn, perpetual
      attributes: full, newton on, cut 5.0
      pair build: full/bin/atomonly
      stencil: full/bin/3d
      bin: standard
Setting up Verlet run ...
  Unit style    : metal
  Current step  : 0
  Time step     : 0.001
Per MPI rank memory allocation (min/avg/max) = 4.234 | 4.234 | 4.234 Mbytes
Step Temp E_pair E_mol TotEng Press 
       0            0   -6921.5991            0   -6921.5991    -7460.407 
Loop time of 0 on 1 procs for 0 steps with 2 atoms

0.0% CPU use with 1 MPI tasks x no OpenMP threads

MPI task timing breakdown:
Section |  min time  |  avg time  |  max time  |%varavg| %total
---------------------------------------------------------------
Pair    | 0          | 0          | 0          |   0.0 |  0.00
Neigh   | 0          | 0          | 0          |   0.0 |  0.00
Comm    | 0          | 0          | 0          |   0.0 |  0.00
Output  | 0          | 0          | 0          |   0.0 |  0.00
Modify  | 0          | 0          | 0          |   0.0 |  0.00
Other   |            | 0          |            |       |  0.00

Nlocal:        2.00000 ave           2 max           2 min
Histogram: 1 0 0 0 0 0 0 0 0 0
Nghost:        339.000 ave         339 max         339 min
Histogram: 1 0 0 0 0 0 0 0 0 0
Neighs:        0.00000 ave           0 max           0 min
Histogram: 1 0 0 0 0 0 0 0 0 0
FullNghs:      116.000 ave         116 max         116 min
Histogram: 1 0 0 0 0 0 0 0 0 0

Total # of neighbors = 116
Ave neighs/atom = 58.000000
Neighbor list builds = 0
Dangerous builds = 0
Total wall time: 0:00:23
