ITEM: TIMESTEP
105
ITEM: NUMBER OF ATOMS
4
ITEM: BOX BOUNDS xy xz yz pp pp pp
0.0000000000000000e+00 7.2250000000000005e+00 0.0000000000000000e+00
0.0000000000000000e+00 7.2250000000000005e+00 1.4450000000000001e+00
0.0000000000000000e+00 1.4450000000000001e+00 1.4450000000000001e+00
ITEM: ATOMS id type x y z fx fy fz
1 1 5.48362 5.48362 0 -0.35445 -0.35445 0
2 1 3.18638 5.48362 0 0.35445 -0.35445 0
3 1 5.48362 3.18638 0 -0.35445 0.35445 0
4 1 3.18638 3.18638 0 0.35445 0.35445 0
