ITEM: TIMESTEP
73
ITEM: NUMBER OF ATOMS
4
ITEM: BOX BOUNDS xy xz yz pp pp pp
0.0000000000000000e+00 7.2250000000000005e+00 0.0000000000000000e+00
0.0000000000000000e+00 7.2250000000000005e+00 1.4450000000000001e+00
0.0000000000000000e+00 1.4450000000000001e+00 1.4450000000000001e+00
ITEM: ATOMS id type x y z fx fy fz
1 1 -0.294725 -0.294725 0 -6.88884e-05 -6.88884e-05 0
2 1 3.18473 -0.294725 0 6.88884e-05 -6.88884e-05 0
3 1 -0.294725 3.18473 0 -6.88884e-05 6.88884e-05 0
4 1 3.18473 3.18473 0 6.88884e-05 6.88884e-05 0
