ITEM: TIMESTEP
107
ITEM: NUMBER OF ATOMS
4
ITEM: BOX BOUNDS xy xz yz pp pp pp
0.0000000000000000e+00 7.1625000000000005e+00 0.0000000000000000e+00
0.0000000000000000e+00 7.1625000000000005e+00 1.4325000000000001e+00
0.0000000000000000e+00 1.4325000000000001e+00 1.4325000000000001e+00
ITEM: ATOMS id type x y z fx fy fz
1 1 5.4211 5.4211 0 0.885284 0.885284 0
2 1 3.1739 5.4211 0 -0.885284 0.885284 0
3 1 5.4211 3.1739 0 0.885284 -0.885284 0
4 1 3.1739 3.1739 0 -0.885284 -0.885284 0
