ITEM: TIMESTEP
74
ITEM: NUMBER OF ATOMS
4
ITEM: BOX BOUNDS xy xz yz pp pp pp
0.0000000000000000e+00 7.2250000000000005e+00 0.0000000000000000e+00
0.0000000000000000e+00 7.2250000000000005e+00 1.4450000000000001e+00
0.0000000000000000e+00 1.4450000000000001e+00 1.4450000000000001e+00
ITEM: ATOMS id type x y z fx fy fz
1 1 -0.294794 -0.294794 0 -6.75228e-05 -6.75228e-05 0
2 1 3.18479 -0.294794 0 6.75228e-05 -6.75228e-05 0
3 1 -0.294794 3.18479 0 -6.75228e-05 6.75228e-05 0
4 1 3.18479 3.18479 0 6.75228e-05 6.75228e-05 0
