ITEM: TIMESTEP
43
ITEM: NUMBER OF ATOMS
4
ITEM: BOX BOUNDS xy xz yz pp pp pp
0.0000000000000000e+00 7.2250000000000005e+00 0.0000000000000000e+00
0.0000000000000000e+00 7.2250000000000005e+00 1.4450000000000001e+00
0.0000000000000000e+00 1.4450000000000001e+00 1.4450000000000001e+00
ITEM: ATOMS id type x y z fx fy fz
1 1 -0.291666 -0.291666 0 -0.000149495 -0.000149495 0
2 1 3.18167 -0.291666 0 0.000149495 -0.000149495 0
3 1 -0.291666 3.18167 0 -0.000149495 0.000149495 0
4 1 3.18167 3.18167 0 0.000149495 0.000149495 0
