ITEM: TIMESTEP
106
ITEM: NUMBER OF ATOMS
4
ITEM: BOX BOUNDS xy xz yz pp pp pp
0.0000000000000000e+00 7.1625000000000005e+00 0.0000000000000000e+00
0.0000000000000000e+00 7.1625000000000005e+00 1.4325000000000001e+00
0.0000000000000000e+00 1.4325000000000001e+00 1.4325000000000001e+00
ITEM: ATOMS id type x y z fx fy fz
1 1 -0.308896 -0.308896 0 -4.06004e-05 -4.06004e-05 0
2 1 3.1739 -0.308896 0 4.06004e-05 -4.06004e-05 0
3 1 -0.308896 3.1739 0 -4.06004e-05 4.06004e-05 0
4 1 3.1739 3.1739 0 4.06004e-05 4.06004e-05 0
