ITEM: TIMESTEP
45
ITEM: NUMBER OF ATOMS
4
ITEM: BOX BOUNDS xy xz yz pp pp pp
0.0000000000000000e+00 7.2250000000000005e+00 0.0000000000000000e+00
0.0000000000000000e+00 7.2250000000000005e+00 1.4450000000000001e+00
0.0000000000000000e+00 1.4450000000000001e+00 1.4450000000000001e+00
ITEM: ATOMS id type x y z fx fy fz
1 1 -0.29196 -0.29196 0 -0.000139919 -0.000139919 0
2 1 3.18196 -0.29196 0 0.000139919 -0.000139919 0
3 1 -0.29196 3.18196 0 -0.000139919 0.000139919 0
4 1 3.18196 3.18196 0 0.000139919 0.000139919 0
