54
Lattice="8.5020000 0.0 0.0 0.0 8.5020000 0.0 0.0 0.0 8.5020000" Properties=species:S:1:pos:R:3:force:R:3:Z:I:1 config_type=slice_sample_high degauss=0.136056917253 ecutwfc=1224.51225528 pbc="T T T" kpoints="34 34 47" energy=-3460.93269561 config_name=prim_0000 
Fe       0.0000000       0.0000000       0.0000000       0.0       0.0       0.0       26
Fe       1.4170000       1.4170000       1.4170000       0.0       0.0       0.0       26
Fe       2.8340000       0.0000000       0.0000000       0.0       0.0       0.0       26
Fe       5.6680000       0.0000000       0.0000000       0.0       0.0       0.0       26
Fe       0.0000000       0.0000000       5.6680000       0.0       0.0       0.0       26
Fe       0.0000000       5.6680000       2.8340000       0.0       0.0       0.0       26
Fe       2.8340000       0.0000000       5.6680000       0.0       0.0       0.0       26
Fe       5.6680000       0.0000000       5.6680000       0.0       0.0       0.0       26
Fe       2.8340000       5.6680000       2.8340000       0.0       0.0       0.0       26
Fe       5.6680000       5.6680000       2.8340000       0.0       0.0       0.0       26
Fe       0.0000000       2.8340000       0.0000000       0.0       0.0       0.0       26
Fe       2.8340000       2.8340000       0.0000000       0.0       0.0       0.0       26
Fe       5.6680000       2.8340000       0.0000000       0.0       0.0       0.0       26
Fe       0.0000000       2.8340000       5.6680000       0.0       0.0       0.0       26
Fe       2.8340000       2.8340000       5.6680000       0.0       0.0       0.0       26
Fe       5.6680000       2.8340000       5.6680000       0.0       0.0       0.0       26
Fe       0.0000000       0.0000000       2.8340000       0.0       0.0       0.0       26
Fe       0.0000000       5.6680000       0.0000000       0.0       0.0       0.0       26
Fe       2.8340000       0.0000000       2.8340000       0.0       0.0       0.0       26
Fe       5.6680000       0.0000000       2.8340000       0.0       0.0       0.0       26
Fe       2.8340000       5.6680000       0.0000000       0.0       0.0       0.0       26
Fe       5.6680000       5.6680000       0.0000000       0.0       0.0       0.0       26
Fe       0.0000000       5.6680000       5.6680000       0.0       0.0       0.0       26
Fe       2.8340000       5.6680000       5.6680000       0.0       0.0       0.0       26
Fe       5.6680000       5.6680000       5.6680000       0.0       0.0       0.0       26
Fe       0.0000000       2.8340000       2.8340000       0.0       0.0       0.0       26
Fe       2.8340000       2.8340000       2.8340000       0.0       0.0       0.0       26
Fe       5.6680000       2.8340000       2.8340000       0.0       0.0       0.0       26
Fe       4.2510000       1.4170000       1.4170000       0.0       0.0       0.0       26
Fe       7.0850000       1.4170000       1.4170000       0.0       0.0       0.0       26
Fe       1.4170000       1.4170000       7.0850000       0.0       0.0       0.0       26
Fe       1.4170000       7.0850000       4.2510000       0.0       0.0       0.0       26
Fe       4.2510000       1.4170000       7.0850000       0.0       0.0       0.0       26
Fe       7.0850000       1.4170000       7.0850000       0.0       0.0       0.0       26
Fe       4.2510000       7.0850000       4.2510000       0.0       0.0       0.0       26
Fe       7.0850000       7.0850000       4.2510000       0.0       0.0       0.0       26
Fe       1.4170000       4.2510000       1.4170000       0.0       0.0       0.0       26
Fe       4.2510000       4.2510000       1.4170000       0.0       0.0       0.0       26
Fe       7.0850000       4.2510000       1.4170000       0.0       0.0       0.0       26
Fe       1.4170000       4.2510000       7.0850000       0.0       0.0       0.0       26
Fe       4.2510000       4.2510000       7.0850000       0.0       0.0       0.0       26
Fe       7.0850000       4.2510000       7.0850000       0.0       0.0       0.0       26
Fe       1.4170000       1.4170000       4.2510000       0.0       0.0       0.0       26
Fe       1.4170000       7.0850000       1.4170000       0.0       0.0       0.0       26
Fe       4.2510000       1.4170000       4.2510000       0.0       0.0       0.0       26
Fe       7.0850000       1.4170000       4.2510000       0.0       0.0       0.0       26
Fe       4.2510000       7.0850000       1.4170000       0.0       0.0       0.0       26
Fe       7.0850000       7.0850000       1.4170000       0.0       0.0       0.0       26
Fe       1.4170000       7.0850000       7.0850000       0.0       0.0       0.0       26
Fe       4.2510000       7.0850000       7.0850000       0.0       0.0       0.0       26
Fe       7.0850000       7.0850000       7.0850000       0.0       0.0       0.0       26
Fe       1.4170000       4.2510000       4.2510000       0.0       0.0       0.0       26
Fe       4.2510000       4.2510000       4.2510000       0.0       0.0       0.0       26
Fe       7.0850000       4.2510000       4.2510000       0.0       0.0       0.0       26