1
Lattice="2.786999623 0.0 0.0 0.0 2.786999623 0.0 1.393499811 1.393499811 1.393499811" Properties=species:S:1:pos:R:3:force:R:3:Z:I:1 config_type=slice_sample_high degauss=0.136056917253 ecutwfc=1224.51225528 pbc="T T T" kpoints="34 34 47" energy=-3460.93269561 config_name=prim_0000 virial="-0.143221272502 -0.00030620885451 7.39124821231e-05 -0.00030620885451 -0.143221272502 6.33535561055e-05 7.39124821231e-05 6.33535561055e-05 -0.143875925916"
Fe      0.00000000       0.00000000       0.00000000       0.00000000       0.00000000       0.00000000       26 
1
Lattice="2.7898435 0.0 0.0 0.0 2.7898435 0.0 1.39492175 1.39492175 1.39492175" Properties=species:S:1:pos:R:3:force:R:3:Z:I:1 config_type=slice_sample_high degauss=0.136056917253 ecutwfc=1224.51225528 pbc="T T T" kpoints="34 34 47" energy=-3460.93269561 config_name=prim_0000 virial="-0.143221272502 -0.00030620885451 7.39124821231e-05 -0.00030620885451 -0.143221272502 6.33535561055e-05 7.39124821231e-05 6.33535561055e-05 -0.143875925916"
Fe      0.00000000       0.00000000       0.00000000       0.00000000       0.00000000       0.00000000       26 
1
Lattice="2.792687377 0.0 0.0 0.0 2.792687377 0.0 1.396343689 1.396343689 1.396343689" Properties=species:S:1:pos:R:3:force:R:3:Z:I:1 config_type=slice_sample_high degauss=0.136056917253 ecutwfc=1224.51225528 pbc="T T T" kpoints="34 34 47" energy=-3460.93269561 config_name=prim_0000 virial="-0.143221272502 -0.00030620885451 7.39124821231e-05 -0.00030620885451 -0.143221272502 6.33535561055e-05 7.39124821231e-05 6.33535561055e-05 -0.143875925916"
Fe      0.00000000       0.00000000       0.00000000       0.00000000       0.00000000       0.00000000       26 
1
Lattice="2.795531254 0.0 0.0 0.0 2.795531254 0.0 1.397765627 1.397765627 1.397765627" Properties=species:S:1:pos:R:3:force:R:3:Z:I:1 config_type=slice_sample_high degauss=0.136056917253 ecutwfc=1224.51225528 pbc="T T T" kpoints="34 34 47" energy=-3460.93269561 config_name=prim_0000 virial="-0.143221272502 -0.00030620885451 7.39124821231e-05 -0.00030620885451 -0.143221272502 6.33535561055e-05 7.39124821231e-05 6.33535561055e-05 -0.143875925916"
Fe      0.00000000       0.00000000       0.00000000       0.00000000       0.00000000       0.00000000       26 
1
Lattice="2.798375131 0.0 0.0 0.0 2.798375131 0.0 1.399187566 1.399187566 1.399187566" Properties=species:S:1:pos:R:3:force:R:3:Z:I:1 config_type=slice_sample_high degauss=0.136056917253 ecutwfc=1224.51225528 pbc="T T T" kpoints="34 34 47" energy=-3460.93269561 config_name=prim_0000 virial="-0.143221272502 -0.00030620885451 7.39124821231e-05 -0.00030620885451 -0.143221272502 6.33535561055e-05 7.39124821231e-05 6.33535561055e-05 -0.143875925916"
Fe      0.00000000       0.00000000       0.00000000       0.00000000       0.00000000       0.00000000       26 
1
Lattice="2.801219009 0.0 0.0 0.0 2.801219009 0.0 1.400609504 1.400609504 1.400609504" Properties=species:S:1:pos:R:3:force:R:3:Z:I:1 config_type=slice_sample_high degauss=0.136056917253 ecutwfc=1224.51225528 pbc="T T T" kpoints="34 34 47" energy=-3460.93269561 config_name=prim_0000 virial="-0.143221272502 -0.00030620885451 7.39124821231e-05 -0.00030620885451 -0.143221272502 6.33535561055e-05 7.39124821231e-05 6.33535561055e-05 -0.143875925916"
Fe      0.00000000       0.00000000       0.00000000       0.00000000       0.00000000       0.00000000       26 
1
Lattice="2.804062886 0.0 0.0 0.0 2.804062886 0.0 1.402031443 1.402031443 1.402031443" Properties=species:S:1:pos:R:3:force:R:3:Z:I:1 config_type=slice_sample_high degauss=0.136056917253 ecutwfc=1224.51225528 pbc="T T T" kpoints="34 34 47" energy=-3460.93269561 config_name=prim_0000 virial="-0.143221272502 -0.00030620885451 7.39124821231e-05 -0.00030620885451 -0.143221272502 6.33535561055e-05 7.39124821231e-05 6.33535561055e-05 -0.143875925916"
Fe      0.00000000       0.00000000       0.00000000       0.00000000       0.00000000       0.00000000       26 
1
Lattice="2.806906763 0.0 0.0 0.0 2.806906763 0.0 1.403453381 1.403453381 1.403453381" Properties=species:S:1:pos:R:3:force:R:3:Z:I:1 config_type=slice_sample_high degauss=0.136056917253 ecutwfc=1224.51225528 pbc="T T T" kpoints="34 34 47" energy=-3460.93269561 config_name=prim_0000 virial="-0.143221272502 -0.00030620885451 7.39124821231e-05 -0.00030620885451 -0.143221272502 6.33535561055e-05 7.39124821231e-05 6.33535561055e-05 -0.143875925916"
Fe      0.00000000       0.00000000       0.00000000       0.00000000       0.00000000       0.00000000       26 
1
Lattice="2.80975064 0.0 0.0 0.0 2.80975064 0.0 1.40487532 1.40487532 1.40487532" Properties=species:S:1:pos:R:3:force:R:3:Z:I:1 config_type=slice_sample_high degauss=0.136056917253 ecutwfc=1224.51225528 pbc="T T T" kpoints="34 34 47" energy=-3460.93269561 config_name=prim_0000 virial="-0.143221272502 -0.00030620885451 7.39124821231e-05 -0.00030620885451 -0.143221272502 6.33535561055e-05 7.39124821231e-05 6.33535561055e-05 -0.143875925916"
Fe      0.00000000       0.00000000       0.00000000       0.00000000       0.00000000       0.00000000       26 
1
Lattice="2.812594517 0.0 0.0 0.0 2.812594517 0.0 1.406297259 1.406297259 1.406297259" Properties=species:S:1:pos:R:3:force:R:3:Z:I:1 config_type=slice_sample_high degauss=0.136056917253 ecutwfc=1224.51225528 pbc="T T T" kpoints="34 34 47" energy=-3460.93269561 config_name=prim_0000 virial="-0.143221272502 -0.00030620885451 7.39124821231e-05 -0.00030620885451 -0.143221272502 6.33535561055e-05 7.39124821231e-05 6.33535561055e-05 -0.143875925916"
Fe      0.00000000       0.00000000       0.00000000       0.00000000       0.00000000       0.00000000       26 
1
Lattice="2.815438394 0.0 0.0 0.0 2.815438394 0.0 1.407719197 1.407719197 1.407719197" Properties=species:S:1:pos:R:3:force:R:3:Z:I:1 config_type=slice_sample_high degauss=0.136056917253 ecutwfc=1224.51225528 pbc="T T T" kpoints="34 34 47" energy=-3460.93269561 config_name=prim_0000 virial="-0.143221272502 -0.00030620885451 7.39124821231e-05 -0.00030620885451 -0.143221272502 6.33535561055e-05 7.39124821231e-05 6.33535561055e-05 -0.143875925916"
Fe      0.00000000       0.00000000       0.00000000       0.00000000       0.00000000       0.00000000       26 
1
Lattice="2.818282272 0.0 0.0 0.0 2.818282272 0.0 1.409141136 1.409141136 1.409141136" Properties=species:S:1:pos:R:3:force:R:3:Z:I:1 config_type=slice_sample_high degauss=0.136056917253 ecutwfc=1224.51225528 pbc="T T T" kpoints="34 34 47" energy=-3460.93269561 config_name=prim_0000 virial="-0.143221272502 -0.00030620885451 7.39124821231e-05 -0.00030620885451 -0.143221272502 6.33535561055e-05 7.39124821231e-05 6.33535561055e-05 -0.143875925916"
Fe      0.00000000       0.00000000       0.00000000       0.00000000       0.00000000       0.00000000       26 
1
Lattice="2.821126149 0.0 0.0 0.0 2.821126149 0.0 1.410563074 1.410563074 1.410563074" Properties=species:S:1:pos:R:3:force:R:3:Z:I:1 config_type=slice_sample_high degauss=0.136056917253 ecutwfc=1224.51225528 pbc="T T T" kpoints="34 34 47" energy=-3460.93269561 config_name=prim_0000 virial="-0.143221272502 -0.00030620885451 7.39124821231e-05 -0.00030620885451 -0.143221272502 6.33535561055e-05 7.39124821231e-05 6.33535561055e-05 -0.143875925916"
Fe      0.00000000       0.00000000       0.00000000       0.00000000       0.00000000       0.00000000       26 
1
Lattice="2.823970026 0.0 0.0 0.0 2.823970026 0.0 1.411985013 1.411985013 1.411985013" Properties=species:S:1:pos:R:3:force:R:3:Z:I:1 config_type=slice_sample_high degauss=0.136056917253 ecutwfc=1224.51225528 pbc="T T T" kpoints="34 34 47" energy=-3460.93269561 config_name=prim_0000 virial="-0.143221272502 -0.00030620885451 7.39124821231e-05 -0.00030620885451 -0.143221272502 6.33535561055e-05 7.39124821231e-05 6.33535561055e-05 -0.143875925916"
Fe      0.00000000       0.00000000       0.00000000       0.00000000       0.00000000       0.00000000       26 
1
Lattice="2.826813903 0.0 0.0 0.0 2.826813903 0.0 1.413406952 1.413406952 1.413406952" Properties=species:S:1:pos:R:3:force:R:3:Z:I:1 config_type=slice_sample_high degauss=0.136056917253 ecutwfc=1224.51225528 pbc="T T T" kpoints="34 34 47" energy=-3460.93269561 config_name=prim_0000 virial="-0.143221272502 -0.00030620885451 7.39124821231e-05 -0.00030620885451 -0.143221272502 6.33535561055e-05 7.39124821231e-05 6.33535561055e-05 -0.143875925916"
Fe      0.00000000       0.00000000       0.00000000       0.00000000       0.00000000       0.00000000       26 
1
Lattice="2.82965778 0.0 0.0 0.0 2.82965778 0.0 1.41482889 1.41482889 1.41482889" Properties=species:S:1:pos:R:3:force:R:3:Z:I:1 config_type=slice_sample_high degauss=0.136056917253 ecutwfc=1224.51225528 pbc="T T T" kpoints="34 34 47" energy=-3460.93269561 config_name=prim_0000 virial="-0.143221272502 -0.00030620885451 7.39124821231e-05 -0.00030620885451 -0.143221272502 6.33535561055e-05 7.39124821231e-05 6.33535561055e-05 -0.143875925916"
Fe      0.00000000       0.00000000       0.00000000       0.00000000       0.00000000       0.00000000       26 
1
Lattice="2.832501657 0.0 0.0 0.0 2.832501657 0.0 1.416250829 1.416250829 1.416250829" Properties=species:S:1:pos:R:3:force:R:3:Z:I:1 config_type=slice_sample_high degauss=0.136056917253 ecutwfc=1224.51225528 pbc="T T T" kpoints="34 34 47" energy=-3460.93269561 config_name=prim_0000 virial="-0.143221272502 -0.00030620885451 7.39124821231e-05 -0.00030620885451 -0.143221272502 6.33535561055e-05 7.39124821231e-05 6.33535561055e-05 -0.143875925916"
Fe      0.00000000       0.00000000       0.00000000       0.00000000       0.00000000       0.00000000       26 
1
Lattice="2.835345535 0.0 0.0 0.0 2.835345535 0.0 1.417672767 1.417672767 1.417672767" Properties=species:S:1:pos:R:3:force:R:3:Z:I:1 config_type=slice_sample_high degauss=0.136056917253 ecutwfc=1224.51225528 pbc="T T T" kpoints="34 34 47" energy=-3460.93269561 config_name=prim_0000 virial="-0.143221272502 -0.00030620885451 7.39124821231e-05 -0.00030620885451 -0.143221272502 6.33535561055e-05 7.39124821231e-05 6.33535561055e-05 -0.143875925916"
Fe      0.00000000       0.00000000       0.00000000       0.00000000       0.00000000       0.00000000       26 
1
Lattice="2.838189412 0.0 0.0 0.0 2.838189412 0.0 1.419094706 1.419094706 1.419094706" Properties=species:S:1:pos:R:3:force:R:3:Z:I:1 config_type=slice_sample_high degauss=0.136056917253 ecutwfc=1224.51225528 pbc="T T T" kpoints="34 34 47" energy=-3460.93269561 config_name=prim_0000 virial="-0.143221272502 -0.00030620885451 7.39124821231e-05 -0.00030620885451 -0.143221272502 6.33535561055e-05 7.39124821231e-05 6.33535561055e-05 -0.143875925916"
Fe      0.00000000       0.00000000       0.00000000       0.00000000       0.00000000       0.00000000       26 
1
Lattice="2.841033289 0.0 0.0 0.0 2.841033289 0.0 1.420516644 1.420516644 1.420516644" Properties=species:S:1:pos:R:3:force:R:3:Z:I:1 config_type=slice_sample_high degauss=0.136056917253 ecutwfc=1224.51225528 pbc="T T T" kpoints="34 34 47" energy=-3460.93269561 config_name=prim_0000 virial="-0.143221272502 -0.00030620885451 7.39124821231e-05 -0.00030620885451 -0.143221272502 6.33535561055e-05 7.39124821231e-05 6.33535561055e-05 -0.143875925916"
Fe      0.00000000       0.00000000       0.00000000       0.00000000       0.00000000       0.00000000       26 
1
Lattice="2.843877166 0.0 0.0 0.0 2.843877166 0.0 1.421938583 1.421938583 1.421938583" Properties=species:S:1:pos:R:3:force:R:3:Z:I:1 config_type=slice_sample_high degauss=0.136056917253 ecutwfc=1224.51225528 pbc="T T T" kpoints="34 34 47" energy=-3460.93269561 config_name=prim_0000 virial="-0.143221272502 -0.00030620885451 7.39124821231e-05 -0.00030620885451 -0.143221272502 6.33535561055e-05 7.39124821231e-05 6.33535561055e-05 -0.143875925916"
Fe      0.00000000       0.00000000       0.00000000       0.00000000       0.00000000       0.00000000       26 
1
Lattice="2.843877166 0.0 0.0 0.0 2.843877166 0.0 1.421938583 1.421938583 1.421938583" Properties=species:S:1:pos:R:3:force:R:3:Z:I:1 config_type=slice_sample_high degauss=0.136056917253 ecutwfc=1224.51225528 pbc="T T T" kpoints="34 34 47" energy=-3460.93269561 config_name=prim_0000 virial="-0.143221272502 -0.00030620885451 7.39124821231e-05 -0.00030620885451 -0.143221272502 6.33535561055e-05 7.39124821231e-05 6.33535561055e-05 -0.143875925916"
Fe      0.00000000       0.00000000       0.00000000       0.00000000       0.00000000       0.00000000       26 
1
Lattice="2.846721043 0.0 0.0 0.0 2.846721043 0.0 1.423360522 1.423360522 1.423360522" Properties=species:S:1:pos:R:3:force:R:3:Z:I:1 config_type=slice_sample_high degauss=0.136056917253 ecutwfc=1224.51225528 pbc="T T T" kpoints="34 34 47" energy=-3460.93269561 config_name=prim_0000 virial="-0.143221272502 -0.00030620885451 7.39124821231e-05 -0.00030620885451 -0.143221272502 6.33535561055e-05 7.39124821231e-05 6.33535561055e-05 -0.143875925916"
Fe      0.00000000       0.00000000       0.00000000       0.00000000       0.00000000       0.00000000       26 
1
Lattice="2.84956492 0.0 0.0 0.0 2.84956492 0.0 1.42478246 1.42478246 1.42478246" Properties=species:S:1:pos:R:3:force:R:3:Z:I:1 config_type=slice_sample_high degauss=0.136056917253 ecutwfc=1224.51225528 pbc="T T T" kpoints="34 34 47" energy=-3460.93269561 config_name=prim_0000 virial="-0.143221272502 -0.00030620885451 7.39124821231e-05 -0.00030620885451 -0.143221272502 6.33535561055e-05 7.39124821231e-05 6.33535561055e-05 -0.143875925916"
Fe      0.00000000       0.00000000       0.00000000       0.00000000       0.00000000       0.00000000       26 
1
Lattice="2.852408797 0.0 0.0 0.0 2.852408797 0.0 1.426204399 1.426204399 1.426204399" Properties=species:S:1:pos:R:3:force:R:3:Z:I:1 config_type=slice_sample_high degauss=0.136056917253 ecutwfc=1224.51225528 pbc="T T T" kpoints="34 34 47" energy=-3460.93269561 config_name=prim_0000 virial="-0.143221272502 -0.00030620885451 7.39124821231e-05 -0.00030620885451 -0.143221272502 6.33535561055e-05 7.39124821231e-05 6.33535561055e-05 -0.143875925916"
Fe      0.00000000       0.00000000       0.00000000       0.00000000       0.00000000       0.00000000       26 
1
Lattice="2.855252675 0.0 0.0 0.0 2.855252675 0.0 1.427626337 1.427626337 1.427626337" Properties=species:S:1:pos:R:3:force:R:3:Z:I:1 config_type=slice_sample_high degauss=0.136056917253 ecutwfc=1224.51225528 pbc="T T T" kpoints="34 34 47" energy=-3460.93269561 config_name=prim_0000 virial="-0.143221272502 -0.00030620885451 7.39124821231e-05 -0.00030620885451 -0.143221272502 6.33535561055e-05 7.39124821231e-05 6.33535561055e-05 -0.143875925916"
Fe      0.00000000       0.00000000       0.00000000       0.00000000       0.00000000       0.00000000       26 
1
Lattice="2.858096552 0.0 0.0 0.0 2.858096552 0.0 1.429048276 1.429048276 1.429048276" Properties=species:S:1:pos:R:3:force:R:3:Z:I:1 config_type=slice_sample_high degauss=0.136056917253 ecutwfc=1224.51225528 pbc="T T T" kpoints="34 34 47" energy=-3460.93269561 config_name=prim_0000 virial="-0.143221272502 -0.00030620885451 7.39124821231e-05 -0.00030620885451 -0.143221272502 6.33535561055e-05 7.39124821231e-05 6.33535561055e-05 -0.143875925916"
Fe      0.00000000       0.00000000       0.00000000       0.00000000       0.00000000       0.00000000       26 
1
Lattice="2.860940429 0.0 0.0 0.0 2.860940429 0.0 1.430470214 1.430470214 1.430470214" Properties=species:S:1:pos:R:3:force:R:3:Z:I:1 config_type=slice_sample_high degauss=0.136056917253 ecutwfc=1224.51225528 pbc="T T T" kpoints="34 34 47" energy=-3460.93269561 config_name=prim_0000 virial="-0.143221272502 -0.00030620885451 7.39124821231e-05 -0.00030620885451 -0.143221272502 6.33535561055e-05 7.39124821231e-05 6.33535561055e-05 -0.143875925916"
Fe      0.00000000       0.00000000       0.00000000       0.00000000       0.00000000       0.00000000       26 
1
Lattice="2.863784306 0.0 0.0 0.0 2.863784306 0.0 1.431892153 1.431892153 1.431892153" Properties=species:S:1:pos:R:3:force:R:3:Z:I:1 config_type=slice_sample_high degauss=0.136056917253 ecutwfc=1224.51225528 pbc="T T T" kpoints="34 34 47" energy=-3460.93269561 config_name=prim_0000 virial="-0.143221272502 -0.00030620885451 7.39124821231e-05 -0.00030620885451 -0.143221272502 6.33535561055e-05 7.39124821231e-05 6.33535561055e-05 -0.143875925916"
Fe      0.00000000       0.00000000       0.00000000       0.00000000       0.00000000       0.00000000       26 
1
Lattice="2.866628183 0.0 0.0 0.0 2.866628183 0.0 1.433314092 1.433314092 1.433314092" Properties=species:S:1:pos:R:3:force:R:3:Z:I:1 config_type=slice_sample_high degauss=0.136056917253 ecutwfc=1224.51225528 pbc="T T T" kpoints="34 34 47" energy=-3460.93269561 config_name=prim_0000 virial="-0.143221272502 -0.00030620885451 7.39124821231e-05 -0.00030620885451 -0.143221272502 6.33535561055e-05 7.39124821231e-05 6.33535561055e-05 -0.143875925916"
Fe      0.00000000       0.00000000       0.00000000       0.00000000       0.00000000       0.00000000       26 
1
Lattice="2.86947206 0.0 0.0 0.0 2.86947206 0.0 1.43473603 1.43473603 1.43473603" Properties=species:S:1:pos:R:3:force:R:3:Z:I:1 config_type=slice_sample_high degauss=0.136056917253 ecutwfc=1224.51225528 pbc="T T T" kpoints="34 34 47" energy=-3460.93269561 config_name=prim_0000 virial="-0.143221272502 -0.00030620885451 7.39124821231e-05 -0.00030620885451 -0.143221272502 6.33535561055e-05 7.39124821231e-05 6.33535561055e-05 -0.143875925916"
Fe      0.00000000       0.00000000       0.00000000       0.00000000       0.00000000       0.00000000       26 
1
Lattice="2.872315938 0.0 0.0 0.0 2.872315938 0.0 1.436157969 1.436157969 1.436157969" Properties=species:S:1:pos:R:3:force:R:3:Z:I:1 config_type=slice_sample_high degauss=0.136056917253 ecutwfc=1224.51225528 pbc="T T T" kpoints="34 34 47" energy=-3460.93269561 config_name=prim_0000 virial="-0.143221272502 -0.00030620885451 7.39124821231e-05 -0.00030620885451 -0.143221272502 6.33535561055e-05 7.39124821231e-05 6.33535561055e-05 -0.143875925916"
Fe      0.00000000       0.00000000       0.00000000       0.00000000       0.00000000       0.00000000       26 
1
Lattice="2.875159815 0.0 0.0 0.0 2.875159815 0.0 1.437579907 1.437579907 1.437579907" Properties=species:S:1:pos:R:3:force:R:3:Z:I:1 config_type=slice_sample_high degauss=0.136056917253 ecutwfc=1224.51225528 pbc="T T T" kpoints="34 34 47" energy=-3460.93269561 config_name=prim_0000 virial="-0.143221272502 -0.00030620885451 7.39124821231e-05 -0.00030620885451 -0.143221272502 6.33535561055e-05 7.39124821231e-05 6.33535561055e-05 -0.143875925916"
Fe      0.00000000       0.00000000       0.00000000       0.00000000       0.00000000       0.00000000       26 
1
Lattice="2.878003692 0.0 0.0 0.0 2.878003692 0.0 1.439001846 1.439001846 1.439001846" Properties=species:S:1:pos:R:3:force:R:3:Z:I:1 config_type=slice_sample_high degauss=0.136056917253 ecutwfc=1224.51225528 pbc="T T T" kpoints="34 34 47" energy=-3460.93269561 config_name=prim_0000 virial="-0.143221272502 -0.00030620885451 7.39124821231e-05 -0.00030620885451 -0.143221272502 6.33535561055e-05 7.39124821231e-05 6.33535561055e-05 -0.143875925916"
Fe      0.00000000       0.00000000       0.00000000       0.00000000       0.00000000       0.00000000       26 
1
Lattice="2.880847569 0.0 0.0 0.0 2.880847569 0.0 1.440423785 1.440423785 1.440423785" Properties=species:S:1:pos:R:3:force:R:3:Z:I:1 config_type=slice_sample_high degauss=0.136056917253 ecutwfc=1224.51225528 pbc="T T T" kpoints="34 34 47" energy=-3460.93269561 config_name=prim_0000 virial="-0.143221272502 -0.00030620885451 7.39124821231e-05 -0.00030620885451 -0.143221272502 6.33535561055e-05 7.39124821231e-05 6.33535561055e-05 -0.143875925916"
Fe      0.00000000       0.00000000       0.00000000       0.00000000       0.00000000       0.00000000       26 
1
Lattice="2.883691446 0.0 0.0 0.0 2.883691446 0.0 1.441845723 1.441845723 1.441845723" Properties=species:S:1:pos:R:3:force:R:3:Z:I:1 config_type=slice_sample_high degauss=0.136056917253 ecutwfc=1224.51225528 pbc="T T T" kpoints="34 34 47" energy=-3460.93269561 config_name=prim_0000 virial="-0.143221272502 -0.00030620885451 7.39124821231e-05 -0.00030620885451 -0.143221272502 6.33535561055e-05 7.39124821231e-05 6.33535561055e-05 -0.143875925916"
Fe      0.00000000       0.00000000       0.00000000       0.00000000       0.00000000       0.00000000       26 
1
Lattice="2.886535323 0.0 0.0 0.0 2.886535323 0.0 1.443267662 1.443267662 1.443267662" Properties=species:S:1:pos:R:3:force:R:3:Z:I:1 config_type=slice_sample_high degauss=0.136056917253 ecutwfc=1224.51225528 pbc="T T T" kpoints="34 34 47" energy=-3460.93269561 config_name=prim_0000 virial="-0.143221272502 -0.00030620885451 7.39124821231e-05 -0.00030620885451 -0.143221272502 6.33535561055e-05 7.39124821231e-05 6.33535561055e-05 -0.143875925916"
Fe      0.00000000       0.00000000       0.00000000       0.00000000       0.00000000       0.00000000       26 
1
Lattice="2.889379201 0.0 0.0 0.0 2.889379201 0.0 1.4446896 1.4446896 1.4446896" Properties=species:S:1:pos:R:3:force:R:3:Z:I:1 config_type=slice_sample_high degauss=0.136056917253 ecutwfc=1224.51225528 pbc="T T T" kpoints="34 34 47" energy=-3460.93269561 config_name=prim_0000 virial="-0.143221272502 -0.00030620885451 7.39124821231e-05 -0.00030620885451 -0.143221272502 6.33535561055e-05 7.39124821231e-05 6.33535561055e-05 -0.143875925916"
Fe      0.00000000       0.00000000       0.00000000       0.00000000       0.00000000       0.00000000       26 
1
Lattice="2.892223078 0.0 0.0 0.0 2.892223078 0.0 1.446111539 1.446111539 1.446111539" Properties=species:S:1:pos:R:3:force:R:3:Z:I:1 config_type=slice_sample_high degauss=0.136056917253 ecutwfc=1224.51225528 pbc="T T T" kpoints="34 34 47" energy=-3460.93269561 config_name=prim_0000 virial="-0.143221272502 -0.00030620885451 7.39124821231e-05 -0.00030620885451 -0.143221272502 6.33535561055e-05 7.39124821231e-05 6.33535561055e-05 -0.143875925916"
Fe      0.00000000       0.00000000       0.00000000       0.00000000       0.00000000       0.00000000       26 
1
Lattice="2.895066955 0.0 0.0 0.0 2.895066955 0.0 1.447533477 1.447533477 1.447533477" Properties=species:S:1:pos:R:3:force:R:3:Z:I:1 config_type=slice_sample_high degauss=0.136056917253 ecutwfc=1224.51225528 pbc="T T T" kpoints="34 34 47" energy=-3460.93269561 config_name=prim_0000 virial="-0.143221272502 -0.00030620885451 7.39124821231e-05 -0.00030620885451 -0.143221272502 6.33535561055e-05 7.39124821231e-05 6.33535561055e-05 -0.143875925916"
Fe      0.00000000       0.00000000       0.00000000       0.00000000       0.00000000       0.00000000       26 
1
Lattice="2.897910832 0.0 0.0 0.0 2.897910832 0.0 1.448955416 1.448955416 1.448955416" Properties=species:S:1:pos:R:3:force:R:3:Z:I:1 config_type=slice_sample_high degauss=0.136056917253 ecutwfc=1224.51225528 pbc="T T T" kpoints="34 34 47" energy=-3460.93269561 config_name=prim_0000 virial="-0.143221272502 -0.00030620885451 7.39124821231e-05 -0.00030620885451 -0.143221272502 6.33535561055e-05 7.39124821231e-05 6.33535561055e-05 -0.143875925916"
Fe      0.00000000       0.00000000       0.00000000       0.00000000       0.00000000       0.00000000       26 
