53
Lattice="8.5020000 0.0 0.0 0.0 8.5020000 0.0 0.0 0.0 8.5020000" Properties=species:S:1:pos:R:3:force:R:3:Z:I:1 config_type=slice_sample_high degauss=0.136056917253 ecutwfc=1224.51225528 pbc="T T T" kpoints="34 34 47" energy=-3460.93269561 config_name=prim_0000 
Fe           1.3710331141       1.3710328145       1.3710330239       0.0       0.0       0.0       26
Fe           2.8636873181       0.0000006056       0.0000002850       0.0       0.0       0.0       26
Fe           5.6383130622       0.0000006007       0.0000002554       0.0       0.0       0.0       26
Fe          -0.0000003236       0.0000005923       5.6383131764       0.0       0.0       0.0       26
Fe          -0.0000003588       5.6780135759       2.8239863030       0.0       0.0       0.0       26
Fe           2.8239871194       0.0000007435       5.6780131819       0.0       0.0       0.0       26
Fe           5.6780131857       0.0000007299       5.6780132388       0.0       0.0       0.0       26
Fe           2.8341486131       5.6678518988       2.8341480191       0.0       0.0       0.0       26
Fe           5.6678516811       5.6678519082       2.8341480047       0.0       0.0       0.0       26
Fe          -0.0000003414       2.8636857854       0.0000003193       0.0       0.0       0.0       26
Fe           2.8239869847       2.8239859741       0.0000003364       0.0       0.0       0.0       26
Fe           5.6780133287       2.8239860021       0.0000002954       0.0       0.0       0.0       26
Fe          -0.0000003894       2.8239858259       5.6780134613       0.0       0.0       0.0       26
Fe           2.8341485983       2.8341475140       5.6678517358       0.0       0.0       0.0       26
Fe           5.6678517287       2.8341475206       5.6678518095       0.0       0.0       0.0       26
Fe          -0.0000002984       0.0000005459       2.8636863926       0.0       0.0       0.0       26
Fe          -0.0000003480       5.6383133214       0.0000003529       0.0       0.0       0.0       26
Fe           2.8239870666       0.0000006725       2.8239865633       0.0       0.0       0.0       26
Fe           5.6780131849       0.0000006603       2.8239865538       0.0       0.0       0.0       26
Fe           2.8239870623       5.6780134537       0.0000003985       0.0       0.0       0.0       26
Fe           5.6780132879       5.6780134462       0.0000003540       0.0       0.0       0.0       26
Fe          -0.0000004008       5.6780135795       5.6780133363       0.0       0.0       0.0       26
Fe           2.8341486930       5.6678518824       5.6678515993       0.0       0.0       0.0       26
Fe           5.6678516714       5.6678518959       5.6678516707       0.0       0.0       0.0       26
Fe          -0.0000003469       2.8239859294       2.8239862830       0.0       0.0       0.0       26
Fe           2.8341485324       2.8341475875       2.8341479943       0.0       0.0       0.0       26
Fe           5.6678517451       2.8341475991       2.8341479618       0.0       0.0       0.0       26
Fe           4.2510003036       1.4201541600       1.4201542876       0.0       0.0       0.0       26
Fe           7.1309666303       1.3710328093       1.3710329475       0.0       0.0       0.0       26
Fe           1.3710331187       1.3710327648       7.1309672952       0.0       0.0       0.0       26
Fe           1.4201542656       7.0818467019       4.2509996322       0.0       0.0       0.0       26
Fe           4.2510003506       1.4201541416       7.0818459679       0.0       0.0       0.0       26
Fe           7.1309665941       1.3710327507       7.1309673430       0.0       0.0       0.0       26
Fe           4.2510003140       7.0939924882       4.2509997047       0.0       0.0       0.0       26
Fe           7.0818453833       7.0818466683       4.2509996776       0.0       0.0       0.0       26
Fe           1.4201540444       4.2509993812       1.4201540671       0.0       0.0       0.0       26
Fe           4.2510003236       4.2509994657       1.4080084858       0.0       0.0       0.0       26
Fe           7.0818455796       4.2509993973       1.4201540235       0.0       0.0       0.0       26
Fe           1.4201540621       4.2509993032       7.0818463141       0.0       0.0       0.0       26
Fe           4.2510003715       4.2509993925       7.0939919123       0.0       0.0       0.0       26
Fe           7.0818455294       4.2509993185       7.0818463189       0.0       0.0       0.0       26
Fe           1.4201542182       1.4201539663       4.2509997132       0.0       0.0       0.0       26
Fe           1.3710331908       7.1309676815       1.3710331340       0.0       0.0       0.0       26
Fe           4.2510002920       1.4080083865       4.2509997882       0.0       0.0       0.0       26
Fe           7.0818454339       1.4201539908       4.2509997531       0.0       0.0       0.0       26
Fe           4.2510003261       7.0818465133       1.4201543806       0.0       0.0       0.0       26
Fe           7.1309665364       7.1309676832       1.3710330651       0.0       0.0       0.0       26
Fe           1.3710332453       7.1309677188       7.1309671530       0.0       0.0       0.0       26
Fe           4.2510003731       7.0818465930       7.0818459245       0.0       0.0       0.0       26
Fe           7.1309664843       7.1309677507       7.1309672224       0.0       0.0       0.0       26
Fe           1.4080083930       4.2509994420       4.2509996333       0.0       0.0       0.0       26
Fe           4.2510003258       4.2509994018       4.2509996692       0.0       0.0       0.0       26
Fe           7.0939911399       4.2509994633       4.2509996798       0.0       0.0       0.0       26