This line is left blank
 
      72  atoms
 
       1  atom types
 
     -10.00000    51.65112  xlo xhi
     0.00000     4.90863  ylo yhi
     0.00000     4.00788  zlo zhi
 
Masses
 
       1    55.84500
 
Atoms
 
      1      1     40.494148      0.818105      2.003941
      2      1     37.023221      0.818105      0.000000
      3      1     38.180197      0.000000      2.003941
      4      1     38.180197      2.454316      2.003941
      5      1     39.337172      1.636211      0.000000
      6      1     39.337172      4.090527      0.000000
      7      1     40.494148      3.272421      2.003941
      8      1     33.552294      0.818105      2.003941
      9      1     34.709270      0.000000      0.000000
     10      1     34.709270      2.454316      0.000000
     11      1     35.866245      1.636211      2.003941
     12      1     35.866245      4.090527      2.003941
     13      1     37.023221      3.272421      0.000000
     14      1     30.081367      0.818105      0.000000
     15      1     31.238343     -0.000000      2.003941
     16      1     31.238343      2.454316      2.003941
     17      1     32.395318      1.636211      0.000000
     18      1     32.395318      4.090527      0.000000
     19      1     33.552294      3.272421      2.003941
     20      1     26.610440      0.818105      2.003941
     21      1     27.767416      0.000000      0.000000
     22      1     27.767416      2.454316      0.000000
     23      1     28.924391      1.636211      2.003941
     24      1     28.924391      4.090527      2.003941
     25      1     30.081367      3.272421      0.000000
     26      1     23.139513      0.818105      0.000000
     27      1     24.296489      0.000000      2.003941
     28      1     24.296489      2.454316      2.003941
     29      1     25.453464      1.636211      0.000000
     30      1     25.453464      4.090527      0.000000
     31      1     26.610440      3.272421      2.003941
     32      1     19.668586      0.818105      2.003941
     33      1     20.825562      0.000000      0.000000
     34      1     20.825562      2.454316      0.000000
     35      1     21.982537      1.636211      2.003941
     36      1     21.982537      4.090527      2.003941
     37      1     23.139513      3.272421      0.000000
     38      1     16.197659      0.818105      0.000000
     39      1     17.354635      0.000000      2.003941
     40      1     17.354635      2.454316      2.003941
     41      1     18.511610      1.636211      0.000000
     42      1     18.511610      4.090527      0.000000
     43      1     19.668586      3.272421      2.003941
     44      1     12.726732      0.818105      2.003941
     45      1     13.883708      0.000000      0.000000
     46      1     13.883708      2.454316      0.000000
     47      1     15.040684      1.636211      2.003941
     48      1     15.040684      4.090527      2.003941
     49      1     16.197659      3.272421      0.000000
     50      1      9.255805      0.818105      0.000000
     51      1     10.412781     -0.000000      2.003941
     52      1     10.412781      2.454316      2.003941
     53      1     11.569757      1.636211      0.000000
     54      1     11.569757      4.090527      0.000000
     55      1     12.726732      3.272421      2.003941
     56      1      5.784878      0.818105      2.003941
     57      1      6.941854      0.000000      0.000000
     58      1      6.941854      2.454316      0.000000
     59      1      8.098830      1.636211      2.003941
     60      1      8.098830      4.090527      2.003941
     61      1      9.255805      3.272421      0.000000
     62      1      2.313951      0.818105      0.000000
     63      1      3.470927      0.000000      2.003941
     64      1      3.470927      2.454316      2.003941
     65      1      4.627903      1.636211      0.000000
     66      1      4.627903      4.090527      0.000000
     67      1      5.784878      3.272421      2.003941
     68      1      0.000000      0.000000      0.000000
     69      1      0.000000      2.454316      0.000000
     70      1      1.156976      1.636211      2.003941
     71      1      1.156976      4.090527      2.003941
     72      1      2.313951      3.272421      0.000000
