This line is left blank

      54  atoms

       1  atom types

     0.00000     8.5008  xlo xhi
     0.00000     8.5008  ylo yhi
     0.00000     8.5008  zlo zhi

Masses

       1    55.84500

Atoms

1 1 -0.006076 0.002301 -0.029079
2 1 1.320128 1.317785 1.444965
3 1 -0.018455 -0.120030 2.894082
4 1 1.461065 1.409724 4.233836
5 1 -0.085471 -0.027560 5.560045
6 1 1.333680 1.415719 7.193468
7 1 -0.090220 2.870189 0.036891
8 1 1.380236 4.252198 1.394114
9 1 0.027366 2.824058 2.826266
10 1 1.448711 4.286443 4.120675
11 1 -0.118276 2.845789 5.609129
12 1 1.418338 4.310391 7.128039
13 1 -0.049227 5.676489 0.046847
14 1 1.426822 7.070275 1.500189
15 1 0.013859 5.549841 2.869692
16 1 1.499014 7.077360 4.343687
17 1 0.115578 5.554432 5.711043
18 1 1.273720 7.204325 7.086243
19 1 2.883180 0.051115 0.015900
20 1 4.187236 1.394236 1.434064
21 1 2.797473 0.098864 2.739335
22 1 4.213260 1.417936 4.249301
23 1 2.896249 0.052205 5.693550
24 1 4.187049 1.402732 7.036544
25 1 2.792494 2.899569 0.026158
26 1 4.189743 4.173402 1.334184
27 1 2.792162 2.862129 2.896958
28 1 4.248244 4.228027 4.173054
29 1 2.788513 2.916694 5.763523
30 1 4.206740 4.315808 7.079959
31 1 2.844605 5.764083 0.175180
32 1 4.375560 7.147251 1.389454
33 1 2.983020 5.683741 2.827645
34 1 4.332206 7.187483 4.192013
35 1 2.964634 5.742311 5.706447
36 1 4.373448 7.106547 7.069682
37 1 5.677272 -0.004672 0.017642
38 1 7.090228 1.388455 1.512335
39 1 5.649837 0.047537 2.818701
40 1 7.146984 1.381955 4.198732
41 1 5.632870 -0.019572 5.646095
42 1 6.988372 1.345879 7.014069
43 1 5.681745 2.849299 -0.076112
44 1 7.107991 4.206748 1.425665
45 1 5.585013 2.797768 2.771569
46 1 7.019136 4.086098 4.178653
47 1 5.542905 2.893518 5.639468
48 1 7.139237 4.231699 7.103731
49 1 5.597838 5.642575 0.076848
50 1 7.190329 7.044055 1.402199
51 1 5.791021 5.596350 2.964117
52 1 7.158898 7.063974 4.139561
53 1 5.728990 5.701303 5.644649
54 1 7.132725 7.051168 7.016999