ITEM: TIMESTEP
0
ITEM: NUMBER OF ATOMS
54
ITEM: BOX BOUNDS pp pp pp
0.0000000000000000e+00 8.5007999999999999e+00
0.0000000000000000e+00 8.5007999999999999e+00
0.0000000000000000e+00 8.5007999999999999e+00
ITEM: ATOMS x y z fx fy fz
8.49472 0.002301 8.47172 -0.796064 -0.0364156 0.624989
1.32013 1.31778 1.44497 0.481273 1.10132 -0.26401
8.48235 8.38077 2.89408 0.577337 1.13812 -0.927573
1.46107 1.40972 4.23384 -0.466682 0.380511 0.754041
8.41533 8.47324 5.56004 0.996288 0.101274 1.10665
1.33368 1.41572 7.19347 0.452512 0.595006 -1.08522
8.41058 2.87019 0.036891 0.640463 -0.915516 -0.0785749
1.38024 4.2522 1.39411 0.575214 0.090561 0.118553
0.027366 2.82406 2.82627 0.0145671 -0.427443 -0.102881
1.44871 4.28644 4.12068 0.0219453 -0.338768 1.95165
8.38252 2.84579 5.60913 1.26486 -0.422895 0.608867
1.41834 4.31039 7.12804 0.284763 -0.0693691 -0.056111
8.45157 5.67649 0.046847 0.721167 0.218165 -0.575399
1.42682 7.07027 1.50019 0.357134 -0.0878988 -0.43047
0.013859 5.54984 2.86969 0.0218942 0.847868 -0.0861002
1.49901 7.07736 4.34369 -0.0417958 -0.331747 -0.355771
0.115578 5.55443 5.71104 -0.794783 1.00606 -0.716525
1.27372 7.20432 7.08624 1.51448 -0.847312 -0.368837
2.88318 0.051115 0.0159 -1.01457 -0.394765 -0.270861
4.18724 1.39424 1.43406 0.83159 0.901457 -0.705011
2.79747 0.098864 2.73934 0.262244 -1.23905 1.21463
4.21326 1.41794 4.2493 -0.0576128 0.238503 0.0828491
2.89625 0.052205 5.69355 -1.31015 -0.469479 -0.33905
4.18705 1.40273 7.03654 0.744824 0.755903 0.694793
2.79249 2.89957 0.026158 -0.378556 -0.95416 -0.330101
4.18974 4.1734 1.33418 0.484351 0.467378 0.695712
2.79216 2.86213 2.89696 0.0345831 -0.530468 -1.07056
4.24824 4.22803 4.17305 -0.132838 0.397833 0.681147
2.78851 2.91669 5.76352 -0.32206 -0.656178 -0.620245
4.20674 4.31581 7.07996 0.580622 -0.144864 0.433952
2.84461 5.76408 0.17518 -0.256361 -0.598514 -1.22052
4.37556 7.14725 1.38945 -0.728707 -0.633663 0.583757
2.98302 5.68374 2.82764 -0.564232 0.449031 -0.0262426
4.33221 7.18748 4.19201 -0.0291951 -0.871971 0.211583
2.96463 5.74231 5.70645 -1.1954 0.082593 -0.360416
4.37345 7.10655 7.06968 -0.820545 -0.160067 0.382948
5.67727 8.49613 0.017642 0.655793 0.255705 0.0274164
7.09023 1.38845 1.51233 -0.52415 0.357595 -1.5229
5.64984 0.047537 2.8187 0.562929 -0.156808 0.139233
7.14698 1.38196 4.19873 -0.956324 0.115056 0.39039
5.63287 8.48123 5.64609 0.526733 0.264014 -0.526389
6.98837 1.34588 7.01407 0.417713 1.04907 0.521219
5.68175 2.8493 8.42469 -0.276154 -0.475565 0.320394
7.10799 4.20675 1.42566 -0.978094 -0.0181909 -0.0610396
5.58501 2.79777 2.77157 0.551215 -0.393673 0.0201782
7.01914 4.0861 4.17865 0.669755 1.2827 0.798848
5.54291 2.89352 5.63947 0.773683 -0.576959 0.335764
7.13924 4.2317 7.10373 -0.994222 0.0512167 -0.49687
5.59784 5.64257 0.076848 1.10678 0.0424428 -0.419034
7.19033 7.04406 1.4022 -1.36836 0.127462 0.492794
5.79102 5.59635 2.96412 -0.992 0.983846 -1.45513
7.1589 7.06397 4.13956 -0.913609 -0.940711 1.38683
5.72899 5.7013 5.64465 0.0815784 -0.46367 -0.119179
7.13272 7.05117 7.017 -0.295815 -0.144576 0.0118237
