LAMMPS (29 Oct 2020)
atom_style	atomic
units				metal
dimension		3
boundary		p p p

#atom_modify	sort 0 0.0
#dimension			3
#lattice 			bcc 	2.4
#region				box 	block 0 2 0 2 0 2
#create_box		1 		box
#create_atoms	1 		box
#mass					1 		55.845

read_data /home/lorenzo/Desktop/delete_this/testing/simple/db_data
Reading data file ...
  orthogonal box = (0.0000000 0.0000000 0.0000000) to (8.5008000 8.5008000 8.5008000)
  1 by 1 by 1 MPI processor grid
  reading atoms ...
  54 atoms
  read_data CPU = 0.001 seconds

#velocity	all create 300.0 87293 loop geom

#pair_style eam/fs
#pair_coeff * * /home/lorenzo/Desktop/lammps_gnn_old-impl/models/Fe_2.eam.fs Fe

#pair_style	lj/cut 5.0
#pair_coeff	* * 0.2007 2.4193

#pair_style meam
#pair_coeff * * /home/lorenzo/Desktop/lammps_gnn_old-impl/models/library.Fe.meam Fe /home/lorenzo/Desktop/lammps_gnn_old-impl/models/Fe.meam Fe

#pair_style	gnn DimeNet 3.5 128 1 7 8 7 6 -3460.825847482401 0.16576383029449013
#pair_coeff	* * /home/lorenzo/Desktop/lammps_gnn_new-impl/testing/models/dimenet.pt 1 26
#pair_style	gnn DimeNet 3.5 128 1 3 8 7 6 -3460.825847482401 0.16576383029449013
#pair_coeff	* * /home/lorenzo/Desktop/lammps_gnn_new-impl/testing/models/dimenet_f.pt 1 26

pair_style	gnn SchNet 5.0 128 128 3 128 -3460.825847482401 0.16576383029449515
pair_coeff	* * /home/lorenzo/Desktop/lammps_gnn_new-impl/testing/models/schnet.pt 1 26

#fix 1 all langevin 100 100 1 435235
#fix	2 all nve

thermo		1
dump 1 all custom 1 dump x y z fx fy fz

#minimize	1.0e-6 0.001 1000 10000

run 0
WARNING: No fixes defined, atoms won't move (../verlet.cpp:54)
WARNING: No pairwise cutoff or binsize set. Atom sorting therefore disabled. (../atom.cpp:2115)
WARNING: Communication cutoff is 0.0. No ghost atoms will be generated. Atoms may get lost. (../comm_brick.cpp:167)
Per MPI rank memory allocation (min/avg/max) = 3.549 | 3.549 | 3.549 Mbytes
Step Temp E_pair E_mol TotEng Press 
       0            0   -186887.35            0   -186887.35    20240.178 
Loop time of 9.53674e-07 on 1 procs for 0 steps with 54 atoms

104.9% CPU use with 1 MPI tasks x no OpenMP threads

MPI task timing breakdown:
Section |  min time  |  avg time  |  max time  |%varavg| %total
---------------------------------------------------------------
Pair    | 0          | 0          | 0          |   0.0 |  0.00
Neigh   | 0          | 0          | 0          |   0.0 |  0.00
Comm    | 0          | 0          | 0          |   0.0 |  0.00
Output  | 0          | 0          | 0          |   0.0 |  0.00
Modify  | 0          | 0          | 0          |   0.0 |  0.00
Other   |            | 9.537e-07  |            |       |100.00

Nlocal:        54.0000 ave          54 max          54 min
Histogram: 1 0 0 0 0 0 0 0 0 0
Nghost:        0.00000 ave           0 max           0 min
Histogram: 1 0 0 0 0 0 0 0 0 0
Neighs:        0.00000 ave           0 max           0 min
Histogram: 1 0 0 0 0 0 0 0 0 0

Total # of neighbors = 0
Ave neighs/atom = 0.0000000
Neighbor list builds = 0
Dangerous builds = 0
Total wall time: 0:00:03
