This line is left blank

      13  atoms

       1  atom types

     0.00000     9.5008  xlo xhi
     0.00000     9.5008  ylo yhi
     0.00000     9.5008  zlo zhi

Masses

       1    55.84500

Atoms

1 1 -2.006076 2.002301 -2.029079
2 1 3.320128 3.317785 3.444965
3 1 -0.518455 -0.620030 3.994082
4 1 1.461065 1.409724 4.233836
5 1 -0.085471 -0.527560 5.560045
6 1 1.333680 1.415719 7.193468
7 1 -0.090220 2.870189 0.036891
8 1 1.380236 4.252198 1.394114
9 1 0.027366 2.824058 2.826266
10 1 1.448711 4.286443 4.120675
11 1 -0.118276 2.845789 5.609129
12 1 1.418338 4.310391 7.128039
13 1 -0.049227 5.676489 0.046847