This line is left blank

      8  atoms

       1  atom types

     0.00000     4.80000  xlo xhi
     0.00000     4.80000  ylo yhi
     0.00000     2.40000  zlo zhi

Masses

       1    55.84500

Atoms

1 1 0.0 0.0 0.0 
2 1 1.2 1.2 1.2
3 1 2.4 0.0 0.0
4 1 3.6 1.2 1.2
5 1 0.0 2.4 0.0
6 1 1.2 3.6 1.2
7 1 2.4 2.4 0.0
8 1 3.6 3.6 1.2