ITEM: TIMESTEP
0
ITEM: NUMBER OF ATOMS
54
ITEM: BOX BOUNDS pp pp pp
0.0000000000000000e+00 7.8000000000000007e+00
0.0000000000000000e+00 7.8000000000000007e+00
0.0000000000000000e+00 7.8000000000000007e+00
ITEM: ATOMS x y z fx fy fz
0 0 0 -6.21725e-15 -5.55112e-15 -6.21725e-15
1.3 1.3 1.3 -3.46945e-18 -2.75821e-16 -4.51028e-16
2.6 0 0 -2.498e-16 -8.79505e-15 -9.11771e-15
3.9 1.3 1.3 -4.06467e-16 1.59595e-16 2.01228e-16
5.2 0 0 5.55112e-16 -9.33975e-15 -9.21485e-15
6.5 1.3 1.3 9.60343e-15 -4.02456e-16 -1.38778e-16
0 2.6 0 -9.32587e-15 -2.22045e-16 -9.4369e-15
1.3 3.9 1.3 6.93889e-18 -6.89227e-16 1.45717e-16
2.6 2.6 0 -6.93889e-16 -5.29091e-16 -9.52363e-15
3.9 3.9 1.3 -5.23594e-15 -5.05151e-15 -3.88578e-16
5.2 2.6 0 2.77556e-16 -6.62664e-16 -9.29118e-15
6.5 3.9 1.3 1.46549e-14 -5.32907e-15 9.71445e-17
0 5.2 0 -8.43769e-15 4.85723e-16 -9.39526e-15
1.3 6.5 1.3 -1.04083e-16 9.44383e-15 -3.46945e-17
2.6 5.2 0 -6.66134e-16 3.19189e-16 -9.29118e-15
3.9 6.5 1.3 -5.49354e-15 1.49325e-14 1.38778e-16
5.2 5.2 0 3.88578e-16 7.14706e-16 -1.08039e-14
6.5 6.5 1.3 1.46411e-14 1.49603e-14 -2.91434e-16
0 0 2.6 -7.99361e-15 -8.21565e-15 -8.88178e-16
1.3 1.3 3.9 1.94289e-16 -3.46945e-17 -1.95156e-15
2.6 0 2.6 -5.27356e-16 -9.06046e-15 -6.93889e-17
3.9 1.3 3.9 -5.23594e-15 -1.66533e-16 -5.15907e-15
5.2 0 2.6 1.8735e-16 -8.74995e-15 -8.60423e-16
6.5 1.3 3.9 1.46549e-14 -2.91434e-16 -5.9952e-15
0 2.6 2.6 -8.32667e-15 0 -6.66134e-16
1.3 3.9 3.9 -2.08167e-16 -5.07461e-15 -4.99427e-15
2.6 2.6 2.6 1.96371e-15 2.25861e-15 2.12677e-15
3.9 3.9 3.9 -7.90047e-15 -7.92248e-15 -9.40741e-15
5.2 2.6 2.6 -1.11022e-16 -9.02056e-16 -1.47798e-15
6.5 3.9 3.9 1.5099e-14 -4.88498e-15 -4.66294e-15
0 5.2 2.6 -9.10383e-15 3.33067e-16 -8.88178e-16
1.3 6.5 3.9 -2.56739e-16 1.56958e-14 -5.95357e-15
2.6 5.2 2.6 -6.245e-16 -2.56739e-16 -1.64452e-15
3.9 6.5 3.9 -5.12492e-15 1.48354e-14 -5.39846e-15
5.2 5.2 2.6 -2.77556e-17 -6.245e-17 -2.13371e-16
6.5 6.5 3.9 1.46549e-14 1.4877e-14 -5.32907e-15
0 0 5.2 -8.88178e-15 -9.10383e-15 2.77556e-16
1.3 1.3 6.5 -2.91434e-16 -3.67761e-16 9.73527e-15
2.6 0 5.2 -7.49401e-16 -8.45157e-15 1.38778e-16
3.9 1.3 6.5 -5.59763e-15 -6.31439e-16 1.64313e-14
5.2 0 5.2 5.68989e-16 -1.04569e-14 6.31439e-16
6.5 1.3 6.5 1.47382e-14 -5.20417e-16 1.53905e-14
0 2.6 5.2 -8.88178e-15 -2.22045e-16 -1.38778e-16
1.3 3.9 6.5 -2.28983e-16 -5.54732e-15 1.60427e-14
2.6 2.6 5.2 -4.85723e-16 -1.25594e-15 -1.45717e-16
3.9 3.9 6.5 -5.37472e-15 -5.17121e-15 1.53749e-14
5.2 2.6 5.2 1.249e-16 -6.38378e-16 3.60822e-16
6.5 3.9 6.5 1.52101e-14 -4.55191e-15 1.57652e-14
0 5.2 5.2 -9.76996e-15 2.77556e-16 6.38378e-16
1.3 6.5 6.5 -5.82867e-16 1.45196e-14 1.4596e-14
2.6 5.2 5.2 -6.38378e-16 1.249e-16 1.38778e-16
3.9 6.5 6.5 -4.78144e-15 1.49117e-14 1.4988e-14
5.2 5.2 5.2 6.93889e-17 2.15106e-16 -6.93889e-16
6.5 6.5 6.5 1.14908e-14 1.181e-14 1.16712e-14
