LAMMPS (29 Oct 2020)
atom_style	atomic
units				metal
dimension		3
boundary		p p p

atom_modify	sort 0 0.0
dimension			3
lattice 			bcc 	2.6
Lattice spacing in x,y,z = 2.6000000 2.6000000 2.6000000
region				box 	block 0 3 0 3 0 3
create_box		1 		box
Created orthogonal box = (0.0000000 0.0000000 0.0000000) to (7.8000000 7.8000000 7.8000000)
  1 by 1 by 1 MPI processor grid
create_atoms	1 		box
Created 54 atoms
  create_atoms CPU = 0.000 seconds
mass					1 		55.845

#read_data /home/lorenzo/Desktop/delete_this/testing/controlled/db_data

#velocity	all create 300.0 87293 loop geom

pair_style eam/fs
pair_coeff * * /home/lorenzo/Desktop/lammps_gnn_new-impl/testing/models/Fe_2.eam.fs Fe

#pair_style	lj/cut 5.0
#pair_coeff	* * 0.2007 2.4193

#pair_style meam
#pair_coeff * * /home/lorenzo/Desktop/lammps_gnn_old-impl/models/library.Fe.meam Fe /home/lorenzo/Desktop/lammps_gnn_old-impl/models/Fe.meam Fe

#pair_style	gnn DimeNet 3.5 128 1 7 8 7 6 -3460.825847482401 0.16576383029449013
#pair_coeff	* * /home/lorenzo/Desktop/lammps_gnn_new-impl/testing/models/dimenet.pt 1 26
#pair_style	gnn DimeNet 3.5 128 1 3 8 7 6 -3460.825847482401 0.16576383029449013
#pair_coeff	* * /home/lorenzo/Desktop/lammps_gnn_new-impl/testing/models/dimenet_f.pt 1 26

#pair_style	gnn SchNet 5.0 128 128 3 128 -3460.825847482401 0.16576383029449515
#pair_coeff	* * /home/lorenzo/Desktop/lammps_gnn_new-impl/testing/models/schnet.pt 1 26

#fix 1 all langevin 100 100 1 435235
#fix	2 all nve

dump 1 all custom 1 dump x y z fx fy fz
thermo		1

#minimize	1.0e-6 0.001 1000 10000

run 0
WARNING: No fixes defined, atoms won't move (../verlet.cpp:54)
Neighbor list info ...
  update every 1 steps, delay 10 steps, check yes
  max neighbors/atom: 2000, page size: 100000
  master list distance cutoff = 7.3
  ghost atom cutoff = 7.3
  binsize = 3.65, bins = 3 3 3
  1 neighbor lists, perpetual/occasional/extra = 1 0 0
  (1) pair eam/fs, perpetual
      attributes: half, newton on
      pair build: half/bin/atomonly/newton
      stencil: half/bin/3d/newton
      bin: standard
Per MPI rank memory allocation (min/avg/max) = 4.489 | 4.489 | 4.489 Mbytes
Step Temp E_pair E_mol TotEng Press 
       0            0   -195.30158            0   -195.30158    702364.33 
Loop time of 1.90735e-06 on 1 procs for 0 steps with 54 atoms

104.9% CPU use with 1 MPI tasks x no OpenMP threads

MPI task timing breakdown:
Section |  min time  |  avg time  |  max time  |%varavg| %total
---------------------------------------------------------------
Pair    | 0          | 0          | 0          |   0.0 |  0.00
Neigh   | 0          | 0          | 0          |   0.0 |  0.00
Comm    | 0          | 0          | 0          |   0.0 |  0.00
Output  | 0          | 0          | 0          |   0.0 |  0.00
Modify  | 0          | 0          | 0          |   0.0 |  0.00
Other   |            | 1.907e-06  |            |       |100.00

Nlocal:        54.0000 ave          54 max          54 min
Histogram: 1 0 0 0 0 0 0 0 0 0
Nghost:        1187.00 ave        1187 max        1187 min
Histogram: 1 0 0 0 0 0 0 0 0 0
Neighs:        4536.00 ave        4536 max        4536 min
Histogram: 1 0 0 0 0 0 0 0 0 0

Total # of neighbors = 4536
Ave neighs/atom = 84.000000
Neighbor list builds = 0
Dangerous builds = 0
Total wall time: 0:00:00
