LAMMPS (29 Oct 2020)
Reading data file ...
  orthogonal box = (0.0000000 0.0000000 0.0000000) to (8.5008000 8.5008000 8.5008000)
  1 by 1 by 1 MPI processor grid
  reading atoms ...
  54 atoms
  read_data CPU = 0.001 seconds
WARNING: No fixes defined, atoms won't move (../verlet.cpp:54)
Setting up Verlet run ...
  Unit style    : metal
  Current step  : 0
  Time step     : 0.001
WARNING: No pairwise cutoff or binsize set. Atom sorting therefore disabled. (../atom.cpp:2115)
WARNING: Communication cutoff is 0.0. No ghost atoms will be generated. Atoms may get lost. (../comm_brick.cpp:167)
8.494724 0.002301 8.471721 -- -0.796064 -0.036416 0.624989
1.320128 1.317785 1.444965 -- 0.481273 1.101320 -0.264010
8.482345 8.380770 2.894082 -- 0.577337 1.138124 -0.927573
1.461065 1.409724 4.233836 -- -0.466682 0.380511 0.754041
8.415329 8.473240 5.560045 -- 0.996288 0.101274 1.106654
1.333680 1.415719 7.193468 -- 0.452512 0.595006 -1.085219
8.410580 2.870189 0.036891 -- 0.640463 -0.915516 -0.078575
1.380236 4.252198 1.394114 -- 0.575214 0.090561 0.118553
0.027366 2.824058 2.826266 -- 0.014567 -0.427443 -0.102881
1.448711 4.286443 4.120675 -- 0.021945 -0.338768 1.951647
8.382524 2.845789 5.609129 -- 1.264865 -0.422895 0.608867
1.418338 4.310391 7.128039 -- 0.284763 -0.069369 -0.056111
8.451573 5.676489 0.046847 -- 0.721167 0.218165 -0.575399
1.426822 7.070275 1.500189 -- 0.357134 -0.087899 -0.430470
0.013859 5.549841 2.869692 -- 0.021894 0.847868 -0.086100
1.499014 7.077360 4.343687 -- -0.041796 -0.331747 -0.355771
0.115578 5.554432 5.711043 -- -0.794783 1.006060 -0.716525
1.273720 7.204325 7.086243 -- 1.514477 -0.847312 -0.368837
2.883180 0.051115 0.015900 -- -1.014571 -0.394765 -0.270861
4.187236 1.394236 1.434064 -- 0.831590 0.901457 -0.705011
2.797473 0.098864 2.739335 -- 0.262244 -1.239047 1.214633
4.213260 1.417936 4.249301 -- -0.057613 0.238503 0.082849
2.896249 0.052205 5.693550 -- -1.310152 -0.469479 -0.339050
4.187049 1.402732 7.036544 -- 0.744824 0.755903 0.694793
2.792494 2.899569 0.026158 -- -0.378556 -0.954160 -0.330101
4.189743 4.173402 1.334184 -- 0.484351 0.467378 0.695712
2.792162 2.862129 2.896958 -- 0.034583 -0.530468 -1.070555
4.248244 4.228027 4.173054 -- -0.132838 0.397833 0.681147
2.788513 2.916694 5.763523 -- -0.322060 -0.656178 -0.620245
4.206740 4.315808 7.079959 -- 0.580622 -0.144864 0.433952
2.844605 5.764083 0.175180 -- -0.256361 -0.598514 -1.220521
4.375560 7.147251 1.389454 -- -0.728707 -0.633663 0.583757
2.983020 5.683741 2.827645 -- -0.564232 0.449031 -0.026243
4.332206 7.187483 4.192013 -- -0.029195 -0.871971 0.211583
2.964634 5.742311 5.706447 -- -1.195404 0.082593 -0.360416
4.373448 7.106547 7.069682 -- -0.820545 -0.160067 0.382948
5.677272 8.496128 0.017642 -- 0.655793 0.255705 0.027416
7.090228 1.388455 1.512335 -- -0.524150 0.357595 -1.522900
5.649837 0.047537 2.818701 -- 0.562929 -0.156808 0.139233
7.146984 1.381955 4.198732 -- -0.956324 0.115056 0.390390
5.632870 8.481228 5.646095 -- 0.526733 0.264014 -0.526389
6.988372 1.345879 7.014069 -- 0.417713 1.049068 0.521219
5.681745 2.849299 8.424688 -- -0.276154 -0.475565 0.320394
7.107991 4.206748 1.425665 -- -0.978094 -0.018191 -0.061040
5.585013 2.797768 2.771569 -- 0.551215 -0.393673 0.020178
7.019136 4.086098 4.178653 -- 0.669755 1.282699 0.798848
5.542905 2.893518 5.639468 -- 0.773683 -0.576959 0.335764
7.139237 4.231699 7.103731 -- -0.994222 0.051217 -0.496870
5.597838 5.642575 0.076848 -- 1.106779 0.042443 -0.419034
7.190329 7.044055 1.402199 -- -1.368364 0.127462 0.492794
5.791021 5.596350 2.964117 -- -0.992000 0.983846 -1.455127
7.158898 7.063974 4.139561 -- -0.913609 -0.940711 1.386827
5.728990 5.701303 5.644649 -- 0.081578 -0.463670 -0.119179
7.132725 7.051168 7.016999 -- -0.295815 -0.144576 0.011824
Per MPI rank memory allocation (min/avg/max) = 2.297 | 2.297 | 2.297 Mbytes
Step Temp E_pair E_mol TotEng Press 
       0            0   -186887.35            0   -186887.35    20240.178 
Loop time of 1.19209e-06 on 1 procs for 0 steps with 54 atoms

83.9% CPU use with 1 MPI tasks x no OpenMP threads

MPI task timing breakdown:
Section |  min time  |  avg time  |  max time  |%varavg| %total
---------------------------------------------------------------
Pair    | 0          | 0          | 0          |   0.0 |  0.00
Neigh   | 0          | 0          | 0          |   0.0 |  0.00
Comm    | 0          | 0          | 0          |   0.0 |  0.00
Output  | 0          | 0          | 0          |   0.0 |  0.00
Modify  | 0          | 0          | 0          |   0.0 |  0.00
Other   |            | 1.192e-06  |            |       |100.00

Nlocal:        54.0000 ave          54 max          54 min
Histogram: 1 0 0 0 0 0 0 0 0 0
Nghost:        0.00000 ave           0 max           0 min
Histogram: 1 0 0 0 0 0 0 0 0 0
Neighs:        0.00000 ave           0 max           0 min
Histogram: 1 0 0 0 0 0 0 0 0 0

Total # of neighbors = 0
Ave neighs/atom = 0.0000000
Neighbor list builds = 0
Dangerous builds = 0
Total wall time: 0:00:20
