LAMMPS (29 Oct 2020)
Reading data file ...
  orthogonal box = (0.0000000 0.0000000 0.0000000) to (8.5008000 8.5008000 8.5008000)
  1 by 1 by 1 MPI processor grid
  reading atoms ...
  54 atoms
  read_data CPU = 0.001 seconds
WARNING: No fixes defined, atoms won't move (../verlet.cpp:54)
Setting up Verlet run ...
  Unit style    : metal
  Current step  : 0
  Time step     : 0.001
WARNING: No pairwise cutoff or binsize set. Atom sorting therefore disabled. (../atom.cpp:2115)
WARNING: Communication cutoff is 0.0. No ghost atoms will be generated. Atoms may get lost. (../comm_brick.cpp:167)
8.444724 0.002301 8.471721 -- -0.266672 0.064175 0.539692
1.320128 1.317785 1.444965 -- 0.401616 1.015753 -0.372532
8.482345 8.380770 2.894082 -- 0.573333 1.164741 -0.935820
1.461065 1.409724 4.233836 -- -0.468210 0.389692 0.744019
8.415329 8.473240 5.560045 -- 0.992775 0.097354 1.115941
1.333680 1.415719 7.193468 -- 0.359999 0.455939 -0.953361
8.410580 2.870189 0.036891 -- 0.657257 -0.897700 -0.069361
1.380236 4.252198 1.394114 -- 0.562557 0.086173 0.120671
0.027366 2.824058 2.826266 -- 0.030276 -0.425961 -0.096605
1.448711 4.286443 4.120675 -- 0.010523 -0.344383 1.951863
8.382524 2.845789 5.609129 -- 1.287181 -0.417086 0.602792
1.418338 4.310391 7.128039 -- 0.272359 -0.069196 -0.079133
8.451573 5.676489 0.046847 -- 0.692600 0.210196 -0.589645
1.426822 7.070275 1.500189 -- 0.354681 -0.080335 -0.436006
0.013859 5.549841 2.869692 -- 0.044901 0.840507 -0.060093
1.499014 7.077360 4.343687 -- -0.063052 -0.349728 -0.368067
0.115578 5.554432 5.711043 -- -0.767136 1.020053 -0.710259
1.273720 7.204325 7.086243 -- 1.399773 -0.731493 -0.256399
2.883180 0.051115 0.015900 -- -1.099252 -0.398554 -0.289562
4.187236 1.394236 1.434064 -- 0.829046 0.875413 -0.704940
2.797473 0.098864 2.739335 -- 0.262504 -1.241122 1.168173
4.213260 1.417936 4.249301 -- -0.053814 0.230806 0.080492
2.896249 0.052205 5.693550 -- -1.268425 -0.461288 -0.289409
4.187049 1.402732 7.036544 -- 0.748964 0.721987 0.686498
2.792494 2.899569 0.026158 -- -0.367732 -0.982533 -0.337063
4.189743 4.173402 1.334184 -- 0.496994 0.474913 0.688500
2.792162 2.862129 2.896958 -- 0.024903 -0.508393 -1.057130
4.248244 4.228027 4.173054 -- -0.152215 0.401635 0.671822
2.788513 2.916694 5.763523 -- -0.324155 -0.638853 -0.621092
4.206740 4.315808 7.079959 -- 0.588585 -0.141182 0.439971
2.844605 5.764083 0.175180 -- -0.236072 -0.542298 -1.187608
4.375560 7.147251 1.389454 -- -0.714799 -0.637290 0.586386
2.983020 5.683741 2.827645 -- -0.550642 0.445650 -0.013700
4.332206 7.187483 4.192013 -- -0.014765 -0.865922 0.209013
2.964634 5.742311 5.706447 -- -1.186780 0.064480 -0.391559
4.373448 7.106547 7.069682 -- -0.784019 -0.153291 0.405904
5.677272 8.496128 0.017642 -- 0.575354 0.244478 0.015570
7.090228 1.388455 1.512335 -- -0.496206 0.340571 -1.505897
5.649837 0.047537 2.818701 -- 0.568867 -0.165563 0.169360
7.146984 1.381955 4.198732 -- -0.958595 0.107940 0.377126
5.632870 8.481228 5.646095 -- 0.521213 0.270249 -0.563991
6.988372 1.345879 7.014069 -- 0.376508 1.077854 0.476481
5.681745 2.849299 8.424688 -- -0.334382 -0.398312 0.301030
7.107991 4.206748 1.425665 -- -0.973778 -0.009035 -0.072760
5.585013 2.797768 2.771569 -- 0.544508 -0.382074 0.024632
7.019136 4.086098 4.178653 -- 0.677661 1.280800 0.795328
5.542905 2.893518 5.639468 -- 0.763826 -0.584129 0.340879
7.139237 4.231699 7.103731 -- -0.999351 0.058352 -0.469441
5.597838 5.642575 0.076848 -- 1.083527 -0.033584 -0.416231
7.190329 7.044055 1.402199 -- -1.386482 0.084501 0.529307
5.791021 5.596350 2.964117 -- -1.038246 0.993365 -1.476908
7.158898 7.063974 4.139561 -- -0.928339 -0.919224 1.389857
5.728990 5.701303 5.644649 -- 0.063789 -0.469915 -0.105482
7.132725 7.051168 7.016999 -- -0.332962 -0.169134 -0.001253
Per MPI rank memory allocation (min/avg/max) = 2.297 | 2.297 | 2.297 Mbytes
Step Temp E_pair E_mol TotEng Press 
       0            0   -186887.37            0   -186887.37    23127.798 
Loop time of 9.53674e-07 on 1 procs for 0 steps with 54 atoms

104.9% CPU use with 1 MPI tasks x no OpenMP threads

MPI task timing breakdown:
Section |  min time  |  avg time  |  max time  |%varavg| %total
---------------------------------------------------------------
Pair    | 0          | 0          | 0          |   0.0 |  0.00
Neigh   | 0          | 0          | 0          |   0.0 |  0.00
Comm    | 0          | 0          | 0          |   0.0 |  0.00
Output  | 0          | 0          | 0          |   0.0 |  0.00
Modify  | 0          | 0          | 0          |   0.0 |  0.00
Other   |            | 9.537e-07  |            |       |100.00

Nlocal:        54.0000 ave          54 max          54 min
Histogram: 1 0 0 0 0 0 0 0 0 0
Nghost:        0.00000 ave           0 max           0 min
Histogram: 1 0 0 0 0 0 0 0 0 0
Neighs:        0.00000 ave           0 max           0 min
Histogram: 1 0 0 0 0 0 0 0 0 0

Total # of neighbors = 0
Ave neighs/atom = 0.0000000
Neighbor list builds = 0
Dangerous builds = 0
Total wall time: 0:00:21
