LAMMPS (29 Oct 2020)
Reading data file ...
  orthogonal box = (0.0000000 0.0000000 0.0000000) to (8.5008000 8.5008000 8.5008000)
  1 by 1 by 1 MPI processor grid
  reading atoms ...
  54 atoms
  read_data CPU = 0.000 seconds
WARNING: No fixes defined, atoms won't move (../verlet.cpp:54)
Setting up Verlet run ...
  Unit style    : metal
  Current step  : 0
  Time step     : 0.001
WARNING: No pairwise cutoff or binsize set. Atom sorting therefore disabled. (../atom.cpp:2115)
WARNING: Communication cutoff is 0.0. No ghost atoms will be generated. Atoms may get lost. (../comm_brick.cpp:167)
8.394724 0.002301 8.471721 -- 0.293509 0.110434 0.450890
1.320128 1.317785 1.444965 -- 0.325638 0.931476 -0.459832
8.482345 8.380770 2.894082 -- 0.580773 1.180989 -0.941733
1.461065 1.409724 4.233836 -- -0.479555 0.393157 0.745869
8.415329 8.473240 5.560045 -- 0.981509 0.102752 1.121549
1.333680 1.415719 7.193468 -- 0.275474 0.355173 -0.849308
8.410580 2.870189 0.036891 -- 0.677210 -0.874055 -0.070916
1.380236 4.252198 1.394114 -- 0.535976 0.097923 0.118338
0.027366 2.824058 2.826266 -- 0.053015 -0.415511 -0.079570
1.448711 4.286443 4.120675 -- -0.008928 -0.349760 1.948805
8.382524 2.845789 5.609129 -- 1.314219 -0.427138 0.592649
1.418338 4.310391 7.128039 -- 0.258429 -0.090186 -0.100730
8.451573 5.676489 0.046847 -- 0.691074 0.204046 -0.586466
1.426822 7.070275 1.500189 -- 0.308347 -0.062295 -0.458201
0.013859 5.549841 2.869692 -- 0.079867 0.835660 -0.041100
1.499014 7.077360 4.343687 -- -0.090661 -0.367659 -0.389458
0.115578 5.554432 5.711043 -- -0.741147 1.038303 -0.717104
1.273720 7.204325 7.086243 -- 1.247186 -0.594465 -0.121648
2.883180 0.051115 0.015900 -- -1.140064 -0.414754 -0.300528
4.187236 1.394236 1.434064 -- 0.833969 0.858778 -0.719662
2.797473 0.098864 2.739335 -- 0.275324 -1.242488 1.145081
4.213260 1.417936 4.249301 -- -0.047529 0.213972 0.069263
2.896249 0.052205 5.693550 -- -1.206208 -0.457674 -0.257701
4.187049 1.402732 7.036544 -- 0.754037 0.675907 0.691144
2.792494 2.899569 0.026158 -- -0.346111 -0.997261 -0.338826
4.189743 4.173402 1.334184 -- 0.516134 0.475882 0.671974
2.792162 2.862129 2.896958 -- 0.023216 -0.485258 -1.033816
4.248244 4.228027 4.173054 -- -0.164622 0.402962 0.669432
2.788513 2.916694 5.763523 -- -0.326827 -0.612769 -0.626224
4.206740 4.315808 7.079959 -- 0.595542 -0.130327 0.456189
2.844605 5.764083 0.175180 -- -0.245410 -0.483709 -1.187742
4.375560 7.147251 1.389454 -- -0.738931 -0.646259 0.591659
2.983020 5.683741 2.827645 -- -0.539362 0.444114 0.011663
4.332206 7.187483 4.192013 -- -0.003981 -0.855466 0.219842
2.964634 5.742311 5.706447 -- -1.168805 0.048586 -0.415161
4.373448 7.106547 7.069682 -- -0.779468 -0.161711 0.419079
5.677272 8.496128 0.017642 -- 0.478924 0.243444 -0.005862
7.090228 1.388455 1.512335 -- -0.474522 0.324133 -1.462109
5.649837 0.047537 2.818701 -- 0.554121 -0.162203 0.204559
7.146984 1.381955 4.198732 -- -0.958415 0.105274 0.353599
5.632870 8.481228 5.646095 -- 0.517467 0.280649 -0.602278
6.988372 1.345879 7.014069 -- 0.327678 1.101380 0.427156
5.681745 2.849299 8.424688 -- -0.387498 -0.345448 0.278613
7.107991 4.206748 1.425665 -- -0.963840 -0.002123 -0.082658
5.585013 2.797768 2.771569 -- 0.523110 -0.366376 0.037032
7.019136 4.086098 4.178653 -- 0.690063 1.283637 0.788377
5.542905 2.893518 5.639468 -- 0.746597 -0.585527 0.336766
7.139237 4.231699 7.103731 -- -0.994823 0.060039 -0.437827
5.597838 5.642575 0.076848 -- 1.076534 -0.092454 -0.418227
7.190329 7.044055 1.402199 -- -1.381881 0.030168 0.575349
5.791021 5.596350 2.964117 -- -1.085904 0.991663 -1.482574
7.158898 7.063974 4.139561 -- -0.934216 -0.898867 1.387582
5.728990 5.701303 5.644649 -- 0.042810 -0.471896 -0.095725
7.132725 7.051168 7.016999 -- -0.369047 -0.196864 -0.029474
Per MPI rank memory allocation (min/avg/max) = 2.297 | 2.297 | 2.297 Mbytes
Step Temp E_pair E_mol TotEng Press 
       0            0   -186887.37            0   -186887.37    26483.207 
Loop time of 9.53674e-07 on 1 procs for 0 steps with 54 atoms

209.7% CPU use with 1 MPI tasks x no OpenMP threads

MPI task timing breakdown:
Section |  min time  |  avg time  |  max time  |%varavg| %total
---------------------------------------------------------------
Pair    | 0          | 0          | 0          |   0.0 |  0.00
Neigh   | 0          | 0          | 0          |   0.0 |  0.00
Comm    | 0          | 0          | 0          |   0.0 |  0.00
Output  | 0          | 0          | 0          |   0.0 |  0.00
Modify  | 0          | 0          | 0          |   0.0 |  0.00
Other   |            | 9.537e-07  |            |       |100.00

Nlocal:        54.0000 ave          54 max          54 min
Histogram: 1 0 0 0 0 0 0 0 0 0
Nghost:        0.00000 ave           0 max           0 min
Histogram: 1 0 0 0 0 0 0 0 0 0
Neighs:        0.00000 ave           0 max           0 min
Histogram: 1 0 0 0 0 0 0 0 0 0

Total # of neighbors = 0
Ave neighs/atom = 0.0000000
Neighbor list builds = 0
Dangerous builds = 0
Total wall time: 0:00:20
