LAMMPS (29 Oct 2020)
Reading data file ...
  orthogonal box = (0.0000000 0.0000000 0.0000000) to (8.5008000 8.5008000 8.5008000)
  1 by 1 by 1 MPI processor grid
  reading atoms ...
  54 atoms
  read_data CPU = 0.009 seconds
WARNING: No fixes defined, atoms won't move (../verlet.cpp:54)
Setting up Verlet run ...
  Unit style    : metal
  Current step  : 0
  Time step     : 0.001
WARNING: No pairwise cutoff or binsize set. Atom sorting therefore disabled. (../atom.cpp:2115)
WARNING: Communication cutoff is 0.0. No ghost atoms will be generated. Atoms may get lost. (../comm_brick.cpp:167)
8.344724 0.002301 8.471721 -- 0.868960 0.164386 0.363481
1.320128 1.317785 1.444965 -- 0.234183 0.825762 -0.539723
8.482345 8.380770 2.894082 -- 0.587791 1.195927 -0.965333
1.461065 1.409724 4.233836 -- -0.510842 0.392575 0.746643
8.415329 8.473240 5.560045 -- 0.954877 0.117963 1.145064
1.333680 1.415719 7.193468 -- 0.194918 0.286498 -0.750592
8.410580 2.870189 0.036891 -- 0.687650 -0.854337 -0.081846
1.380236 4.252198 1.394114 -- 0.500912 0.115313 0.126436
0.027366 2.824058 2.826266 -- 0.079802 -0.393988 -0.052495
1.448711 4.286443 4.120675 -- -0.034100 -0.357764 1.930024
8.382524 2.845789 5.609129 -- 1.340095 -0.429091 0.577369
1.418338 4.310391 7.128039 -- 0.235494 -0.097885 -0.121158
8.451573 5.676489 0.046847 -- 0.690936 0.211117 -0.567821
1.426822 7.070275 1.500189 -- 0.200762 -0.038605 -0.512702
0.013859 5.549841 2.869692 -- 0.126475 0.837397 -0.032827
1.499014 7.077360 4.343687 -- -0.123616 -0.387025 -0.426797
0.115578 5.554432 5.711043 -- -0.702003 1.029858 -0.725368
1.273720 7.204325 7.086243 -- 1.120192 -0.477051 0.006011
2.883180 0.051115 0.015900 -- -1.188056 -0.452831 -0.313189
4.187236 1.394236 1.434064 -- 0.830593 0.855311 -0.734592
2.797473 0.098864 2.739335 -- 0.304507 -1.250247 1.128028
4.213260 1.417936 4.249301 -- -0.036300 0.196088 0.047906
2.896249 0.052205 5.693550 -- -1.124915 -0.460590 -0.212269
4.187049 1.402732 7.036544 -- 0.748069 0.630249 0.699767
2.792494 2.899569 0.026158 -- -0.282886 -0.990724 -0.338526
4.189743 4.173402 1.334184 -- 0.538944 0.472722 0.652848
2.792162 2.862129 2.896958 -- 0.021807 -0.454968 -1.008472
4.248244 4.228027 4.173054 -- -0.180542 0.405318 0.660797
2.788513 2.916694 5.763523 -- -0.320906 -0.578385 -0.634027
4.206740 4.315808 7.079959 -- 0.597336 -0.118556 0.479090
2.844605 5.764083 0.175180 -- -0.207804 -0.452478 -1.204100
4.375560 7.147251 1.389454 -- -0.782261 -0.655909 0.616995
2.983020 5.683741 2.827645 -- -0.539350 0.450301 0.032247
4.332206 7.187483 4.192013 -- 0.012713 -0.837273 0.217751
2.964634 5.742311 5.706447 -- -1.138571 0.026897 -0.439136
4.373448 7.106547 7.069682 -- -0.818360 -0.187634 0.423532
5.677272 8.496128 0.017642 -- 0.379826 0.254802 -0.032807
7.090228 1.388455 1.512335 -- -0.442386 0.330413 -1.379252
5.649837 0.047537 2.818701 -- 0.524908 -0.171506 0.248093
7.146984 1.381955 4.198732 -- -0.952254 0.101019 0.332487
5.632870 8.481228 5.646095 -- 0.518298 0.298394 -0.637873
6.988372 1.345879 7.014069 -- 0.292409 1.131648 0.365060
5.681745 2.849299 8.424688 -- -0.455556 -0.287358 0.251509
7.107991 4.206748 1.425665 -- -0.940869 -0.003251 -0.092361
5.585013 2.797768 2.771569 -- 0.494432 -0.349385 0.058807
7.019136 4.086098 4.178653 -- 0.710943 1.282266 0.780067
5.542905 2.893518 5.639468 -- 0.738198 -0.597440 0.344268
7.139237 4.231699 7.103731 -- -0.984046 0.044862 -0.401261
5.597838 5.642575 0.076848 -- 1.057220 -0.164194 -0.429196
7.190329 7.044055 1.402199 -- -1.360053 -0.047911 0.655624
5.791021 5.596350 2.964117 -- -1.140478 1.011195 -1.501174
7.158898 7.063974 4.139561 -- -0.937201 -0.878848 1.390306
5.728990 5.701303 5.644649 -- 0.005124 -0.476147 -0.080915
7.132725 7.051168 7.016999 -- -0.395023 -0.216901 -0.064395
Per MPI rank memory allocation (min/avg/max) = 2.297 | 2.297 | 2.297 Mbytes
Step Temp E_pair E_mol TotEng Press 
       0            0   -186887.34            0   -186887.34    29685.375 
Loop time of 9.53674e-07 on 1 procs for 0 steps with 54 atoms

104.9% CPU use with 1 MPI tasks x no OpenMP threads

MPI task timing breakdown:
Section |  min time  |  avg time  |  max time  |%varavg| %total
---------------------------------------------------------------
Pair    | 0          | 0          | 0          |   0.0 |  0.00
Neigh   | 0          | 0          | 0          |   0.0 |  0.00
Comm    | 0          | 0          | 0          |   0.0 |  0.00
Output  | 0          | 0          | 0          |   0.0 |  0.00
Modify  | 0          | 0          | 0          |   0.0 |  0.00
Other   |            | 9.537e-07  |            |       |100.00

Nlocal:        54.0000 ave          54 max          54 min
Histogram: 1 0 0 0 0 0 0 0 0 0
Nghost:        0.00000 ave           0 max           0 min
Histogram: 1 0 0 0 0 0 0 0 0 0
Neighs:        0.00000 ave           0 max           0 min
Histogram: 1 0 0 0 0 0 0 0 0 0

Total # of neighbors = 0
Ave neighs/atom = 0.0000000
Neighbor list builds = 0
Dangerous builds = 0
Total wall time: 0:00:20
