LAMMPS (29 Oct 2020)
Reading data file ...
  orthogonal box = (0.0000000 0.0000000 0.0000000) to (8.5008000 8.5008000 8.5008000)
  1 by 1 by 1 MPI processor grid
  reading atoms ...
  54 atoms
  read_data CPU = 0.009 seconds
WARNING: No fixes defined, atoms won't move (../verlet.cpp:54)
Setting up Verlet run ...
  Unit style    : metal
  Current step  : 0
  Time step     : 0.001
WARNING: No pairwise cutoff or binsize set. Atom sorting therefore disabled. (../atom.cpp:2115)
WARNING: Communication cutoff is 0.0. No ghost atoms will be generated. Atoms may get lost. (../comm_brick.cpp:167)
8.244724 0.002301 8.471721 -- 2.435869 0.670847 0.367065
1.320128 1.317785 1.444965 -- 0.002959 0.650469 -0.718492
8.482345 8.380770 2.894082 -- 0.622746 1.229091 -1.008600
1.461065 1.409724 4.233836 -- -0.596231 0.410994 0.762145
8.415329 8.473240 5.560045 -- 0.886513 0.170700 1.203033
1.333680 1.415719 7.193468 -- -0.054844 0.065489 -0.509516
8.410580 2.870189 0.036891 -- 0.704310 -0.893367 -0.103455
1.380236 4.252198 1.394114 -- 0.429833 0.171562 0.144720
0.027366 2.824058 2.826266 -- 0.129675 -0.356889 -0.017630
1.448711 4.286443 4.120675 -- -0.085086 -0.354032 1.904261
8.382524 2.845789 5.609129 -- 1.397076 -0.451019 0.559685
1.418338 4.310391 7.128039 -- 0.174567 -0.123864 -0.172989
8.451573 5.676489 0.046847 -- 0.661625 0.225386 -0.519306
1.426822 7.070275 1.500189 -- -0.079679 -0.039241 -0.600320
0.013859 5.549841 2.869692 -- 0.212415 0.865884 -0.029081
1.499014 7.077360 4.343687 -- -0.218426 -0.434052 -0.507810
0.115578 5.554432 5.711043 -- -0.609506 1.000008 -0.749428
1.273720 7.204325 7.086243 -- 0.953068 -0.327010 0.143866
2.883180 0.051115 0.015900 -- -1.319326 -0.518522 -0.315978
4.187236 1.394236 1.434064 -- 0.744402 0.915798 -0.698207
2.797473 0.098864 2.739335 -- 0.398825 -1.293223 1.119529
4.213260 1.417936 4.249301 -- -0.021212 0.169387 0.005195
2.896249 0.052205 5.693550 -- -0.961940 -0.472725 -0.137658
4.187049 1.402732 7.036544 -- 0.654004 0.594624 0.633454
2.792494 2.899569 0.026158 -- -0.170952 -1.008525 -0.344219
4.189743 4.173402 1.334184 -- 0.608923 0.470523 0.629468
2.792162 2.862129 2.896958 -- 0.017957 -0.418657 -0.951731
4.248244 4.228027 4.173054 -- -0.231698 0.407651 0.627828
2.788513 2.916694 5.763523 -- -0.315092 -0.514847 -0.647278
4.206740 4.315808 7.079959 -- 0.575148 -0.069162 0.533534
2.844605 5.764083 0.175180 -- -0.140646 -0.320581 -1.228741
4.375560 7.147251 1.389454 -- -1.059645 -0.827730 0.776755
2.983020 5.683741 2.827645 -- -0.529459 0.481321 0.058351
4.332206 7.187483 4.192013 -- 0.020085 -0.828926 0.183332
2.964634 5.742311 5.706447 -- -1.047946 -0.001152 -0.473581
4.373448 7.106547 7.069682 -- -1.017433 -0.318373 0.388413
5.677272 8.496128 0.017642 -- 0.251132 0.279293 -0.133732
7.090228 1.388455 1.512335 -- -0.263406 0.365223 -1.209628
5.649837 0.047537 2.818701 -- 0.455729 -0.215182 0.332052
7.146984 1.381955 4.198732 -- -0.927172 0.075647 0.290376
5.632870 8.481228 5.646095 -- 0.547824 0.361479 -0.691347
6.988372 1.345879 7.014069 -- 0.234477 1.234533 0.158476
5.681745 2.849299 8.424688 -- -0.605012 -0.183840 0.211459
7.107991 4.206748 1.425665 -- -0.890001 -0.019918 -0.113648
5.585013 2.797768 2.771569 -- 0.436333 -0.317359 0.095605
7.019136 4.086098 4.178653 -- 0.754568 1.291422 0.756618
5.542905 2.893518 5.639468 -- 0.715426 -0.647676 0.389377
7.139237 4.231699 7.103731 -- -0.926718 0.032868 -0.322700
5.597838 5.642575 0.076848 -- 0.991405 -0.285429 -0.447302
7.190329 7.044055 1.402199 -- -1.215690 -0.279192 0.867779
5.791021 5.596350 2.964117 -- -1.253855 1.093626 -1.566378
7.158898 7.063974 4.139561 -- -0.945208 -0.852765 1.447820
5.728990 5.701303 5.644649 -- -0.063606 -0.453424 -0.045930
7.132725 7.051168 7.016999 -- -0.467106 -0.407146 -0.325513
Per MPI rank memory allocation (min/avg/max) = 3.549 | 3.549 | 3.549 Mbytes
Step Temp E_pair E_mol TotEng Press 
       0            0   -186887.18            0   -186887.18    34970.804 
Loop time of 0 on 1 procs for 0 steps with 54 atoms

0.0% CPU use with 1 MPI tasks x no OpenMP threads

MPI task timing breakdown:
Section |  min time  |  avg time  |  max time  |%varavg| %total
---------------------------------------------------------------
Pair    | 0          | 0          | 0          |   0.0 |  0.00
Neigh   | 0          | 0          | 0          |   0.0 |  0.00
Comm    | 0          | 0          | 0          |   0.0 |  0.00
Output  | 0          | 0          | 0          |   0.0 |  0.00
Modify  | 0          | 0          | 0          |   0.0 |  0.00
Other   |            | 0          |            |       |  0.00

Nlocal:        54.0000 ave          54 max          54 min
Histogram: 1 0 0 0 0 0 0 0 0 0
Nghost:        0.00000 ave           0 max           0 min
Histogram: 1 0 0 0 0 0 0 0 0 0
Neighs:        0.00000 ave           0 max           0 min
Histogram: 1 0 0 0 0 0 0 0 0 0

Total # of neighbors = 0
Ave neighs/atom = 0.0000000
Neighbor list builds = 0
Dangerous builds = 0
Total wall time: 0:00:21
