LAMMPS (29 Oct 2020)
Reading data file ...
  orthogonal box = (0.0000000 0.0000000 0.0000000) to (8.5008000 8.5008000 8.5008000)
  1 by 1 by 1 MPI processor grid
  reading atoms ...
  54 atoms
  read_data CPU = 0.001 seconds
WARNING: No fixes defined, atoms won't move (../verlet.cpp:54)
Setting up Verlet run ...
  Unit style    : metal
  Current step  : 0
  Time step     : 0.001
WARNING: No pairwise cutoff or binsize set. Atom sorting therefore disabled. (../atom.cpp:2115)
WARNING: Communication cutoff is 0.0. No ghost atoms will be generated. Atoms may get lost. (../comm_brick.cpp:167)
6.244724 0.002301 8.471721 -- 0.538345 -2.992661 3.987440
1.320128 1.317785 1.444965 -- 0.096140 2.771158 -0.502850
8.482345 8.380770 2.894082 -- 1.503438 1.060232 0.824160
1.461065 1.409724 4.233836 -- -1.951875 -0.260269 0.674206
8.415329 8.473240 5.560045 -- 2.068521 0.480080 -0.325826
1.333680 1.415719 7.193468 -- -0.252364 0.594425 -1.071550
8.410580 2.870189 0.036891 -- 2.722405 0.176376 -0.270634
1.380236 4.252198 1.394114 -- -0.002960 -0.194412 -0.411369
0.027366 2.824058 2.826266 -- 0.752128 -0.074355 0.622273
1.448711 4.286443 4.120675 -- -0.611320 -0.903958 2.026923
8.382524 2.845789 5.609129 -- 2.138770 -0.045173 0.445005
1.418338 4.310391 7.128039 -- -0.672726 0.044791 -0.057648
8.451573 5.676489 0.046847 -- 0.931108 -0.385556 -0.272230
1.426822 7.070275 1.500189 -- 0.392284 -0.222495 -0.588770
0.013859 5.549841 2.869692 -- 0.815954 0.514327 0.532933
1.499014 7.077360 4.343687 -- -1.056977 0.037323 -1.141768
0.115578 5.554432 5.711043 -- 0.291229 0.275094 -0.772348
1.273720 7.204325 7.086243 -- 1.922154 -1.686628 0.465637
2.883180 0.051115 0.015900 -- -0.955797 -0.391680 -0.289735
4.187236 1.394236 1.434064 -- 0.870716 0.493210 -1.087338
2.797473 0.098864 2.739335 -- 0.241082 -1.286325 1.529375
4.213260 1.417936 4.249301 -- 0.874111 -0.187228 -0.329232
2.896249 0.052205 5.693550 -- -1.582598 -0.753279 -0.115457
4.187049 1.402732 7.036544 -- 1.820331 0.514112 0.947141
2.792494 2.899569 0.026158 -- -0.894016 -1.651611 -0.463836
4.189743 4.173402 1.334184 -- 1.074353 0.532586 0.742809
2.792162 2.862129 2.896958 -- 0.246427 -0.422585 -0.930654
4.248244 4.228027 4.173054 -- 0.359669 0.750186 -0.172334
2.788513 2.916694 5.763523 -- -0.502583 -0.178437 -0.700491
4.206740 4.315808 7.079959 -- 1.012034 -0.097441 0.858721
2.844605 5.764083 0.175180 -- -0.236262 -0.820912 -1.239343
4.375560 7.147251 1.389454 -- -0.998884 -0.749665 0.519600
2.983020 5.683741 2.827645 -- 0.033689 0.197889 0.493446
4.332206 7.187483 4.192013 -- 0.250532 -1.403559 0.045452
2.964634 5.742311 5.706447 -- -1.137916 -0.312567 -0.609253
4.373448 7.106547 7.069682 -- 0.032315 0.275523 0.895704
5.677272 8.496128 0.017642 -- -3.877468 1.358813 -1.134254
7.090228 1.388455 1.512335 -- 0.221564 -1.683538 -1.909445
5.649837 0.047537 2.818701 -- 0.046085 -0.127097 0.540562
7.146984 1.381955 4.198732 -- -0.799665 -0.850377 -0.168874
5.632870 8.481228 5.646095 -- -0.020243 1.716657 -0.026078
6.988372 1.345879 7.014069 -- 1.845610 2.603724 -2.259822
5.681745 2.849299 8.424688 -- -1.637312 -0.362768 -0.211815
7.107991 4.206748 1.425665 -- -1.110390 0.470052 -0.517841
5.585013 2.797768 2.771569 -- 0.122457 0.935110 0.432575
7.019136 4.086098 4.178653 -- 0.305191 1.456933 0.900963
5.542905 2.893518 5.639468 -- 0.243018 0.862666 -0.196294
7.139237 4.231699 7.103731 -- -1.127310 0.605916 -0.101877
5.597838 5.642575 0.076848 -- 0.957932 0.402251 -0.396344
7.190329 7.044055 1.402199 -- -0.779037 0.464745 -0.317954
5.791021 5.596350 2.964117 -- -2.200886 -0.392849 -1.463135
7.158898 7.063974 4.139561 -- -0.572941 -0.442191 1.015450
5.728990 5.701303 5.644649 -- -0.624491 -1.267985 0.776755
7.132725 7.051168 7.016999 -- -1.123572 0.553421 0.779267
Per MPI rank memory allocation (min/avg/max) = 3.549 | 3.549 | 3.549 Mbytes
Step Temp E_pair E_mol TotEng Press 
       0            0   -186883.74            0   -186883.74    71510.287 
Loop time of 9.53674e-07 on 1 procs for 0 steps with 54 atoms

209.7% CPU use with 1 MPI tasks x no OpenMP threads

MPI task timing breakdown:
Section |  min time  |  avg time  |  max time  |%varavg| %total
---------------------------------------------------------------
Pair    | 0          | 0          | 0          |   0.0 |  0.00
Neigh   | 0          | 0          | 0          |   0.0 |  0.00
Comm    | 0          | 0          | 0          |   0.0 |  0.00
Output  | 0          | 0          | 0          |   0.0 |  0.00
Modify  | 0          | 0          | 0          |   0.0 |  0.00
Other   |            | 9.537e-07  |            |       |100.00

Nlocal:        54.0000 ave          54 max          54 min
Histogram: 1 0 0 0 0 0 0 0 0 0
Nghost:        0.00000 ave           0 max           0 min
Histogram: 1 0 0 0 0 0 0 0 0 0
Neighs:        0.00000 ave           0 max           0 min
Histogram: 1 0 0 0 0 0 0 0 0 0

Total # of neighbors = 0
Ave neighs/atom = 0.0000000
Neighbor list builds = 0
Dangerous builds = 0
Total wall time: 0:00:20
