LAMMPS (29 Oct 2020)
Reading data file ...
  orthogonal box = (0.0000000 0.0000000 0.0000000) to (8.5008000 8.5008000 8.5008000)
  1 by 1 by 1 MPI processor grid
  reading atoms ...
  54 atoms
  read_data CPU = 0.034 seconds
WARNING: No fixes defined, atoms won't move (../verlet.cpp:54)
Setting up Verlet run ...
  Unit style    : metal
  Current step  : 0
  Time step     : 0.001
WARNING: No pairwise cutoff or binsize set. Atom sorting therefore disabled. (../atom.cpp:2115)
WARNING: Communication cutoff is 0.0. No ghost atoms will be generated. Atoms may get lost. (../comm_brick.cpp:167)
6.494724 2.002301 6.471721 -- -3.362365 4.336374 -1.488679
1.320128 1.317785 1.444965 -- -0.751042 -0.633218 -0.759291
8.482345 8.380770 2.894082 -- 0.769699 1.256611 -1.240019
1.461065 1.409724 4.233836 -- -0.080514 -0.303763 -0.302733
8.415329 8.473240 5.560045 -- 0.641748 1.226905 0.850890
1.333680 1.415719 7.193468 -- -1.812989 -0.582590 -0.939315
8.410580 2.870189 0.036891 -- 0.352245 -0.285801 -0.388521
1.380236 4.252198 1.394114 -- 0.392566 0.641935 0.419449
0.027366 2.824058 2.826266 -- -0.896528 -0.701177 0.102669
1.448711 4.286443 4.120675 -- 0.039394 0.241142 1.173440
8.382524 2.845789 5.609129 -- 2.799751 -2.291664 1.557559
1.418338 4.310391 7.128039 -- 1.051507 0.990047 0.355368
8.451573 5.676489 0.046847 -- 0.754403 -1.033734 -0.121428
1.426822 7.070275 1.500189 -- -0.071953 0.795717 0.668224
0.013859 5.549841 2.869692 -- -0.010766 2.175137 -0.526907
1.499014 7.077360 4.343687 -- -0.034899 -0.445748 -0.259682
0.115578 5.554432 5.711043 -- -1.372673 0.698488 -0.532809
1.273720 7.204325 7.086243 -- 1.139453 0.980117 -0.357623
2.883180 0.051115 0.015900 -- -0.278889 -0.887292 -0.942937
4.187236 1.394236 1.434064 -- -0.198690 0.870535 -0.551172
2.797473 0.098864 2.739335 -- -0.243735 -1.766727 1.861335
4.213260 1.417936 4.249301 -- -1.117977 0.006674 -0.601679
2.896249 0.052205 5.693550 -- -2.675673 -0.400614 0.617433
4.187049 1.402732 7.036544 -- 0.826432 0.890639 0.009804
2.792494 2.899569 0.026158 -- -0.104366 -0.772122 -0.163089
4.189743 4.173402 1.334184 -- 0.140110 0.333912 0.529880
2.792162 2.862129 2.896958 -- 0.573736 -0.808221 -1.271093
4.248244 4.228027 4.173054 -- 0.286522 0.370059 0.703422
2.788513 2.916694 5.763523 -- -1.752837 -1.086236 -0.756117
4.206740 4.315808 7.079959 -- 0.163516 0.565379 0.323666
2.844605 5.764083 0.175180 -- -0.852555 -0.293898 -1.847218
4.375560 7.147251 1.389454 -- -0.521258 -0.223890 0.891065
2.983020 5.683741 2.827645 -- -1.118251 0.414453 0.114178
4.332206 7.187483 4.192013 -- -0.481502 -0.472999 -0.295793
2.964634 5.742311 5.706447 -- -1.383032 -0.716063 0.303939
4.373448 7.106547 7.069682 -- -1.022621 -1.230810 0.841640
5.677272 8.496128 0.017642 -- -0.172993 0.910426 -0.333013
7.090228 1.388455 1.512335 -- 0.850782 2.087071 -0.785257
5.649837 0.047537 2.818701 -- 0.919168 -0.678528 -0.183299
7.146984 1.381955 4.198732 -- -0.773928 1.097568 -0.683961
5.632870 8.481228 5.646095 -- 3.106497 1.158648 -0.169941
6.988372 1.345879 7.014069 -- 0.586307 0.719588 -0.345180
5.681745 2.849299 8.424688 -- 0.036533 -2.905790 2.414245
7.107991 4.206748 1.425665 -- -0.032936 0.188416 1.390276
5.585013 2.797768 2.771569 -- 0.766922 0.446788 0.385360
7.019136 4.086098 4.178653 -- -0.233656 0.750588 -0.273251
5.542905 2.893518 5.639468 -- 6.622754 -4.787950 2.601747
7.139237 4.231699 7.103731 -- -0.609374 -1.728962 -0.866030
5.597838 5.642575 0.076848 -- 1.709394 0.371577 -0.906179
7.190329 7.044055 1.402199 -- -0.196849 0.075782 1.110122
5.791021 5.596350 2.964117 -- -1.533430 1.102542 -2.411172
7.158898 7.063974 4.139561 -- -0.835990 -2.476458 0.950739
5.728990 5.701303 5.644649 -- 0.289180 -0.094816 0.593362
7.132725 7.051168 7.016999 -- -0.284351 1.905951 -0.466424
Per MPI rank memory allocation (min/avg/max) = 3.549 | 3.549 | 3.549 Mbytes
Step Temp E_pair E_mol TotEng Press 
       0            0   -186878.78            0   -186878.78    87962.158 
Loop time of 9.53674e-07 on 1 procs for 0 steps with 54 atoms

104.9% CPU use with 1 MPI tasks x no OpenMP threads

MPI task timing breakdown:
Section |  min time  |  avg time  |  max time  |%varavg| %total
---------------------------------------------------------------
Pair    | 0          | 0          | 0          |   0.0 |  0.00
Neigh   | 0          | 0          | 0          |   0.0 |  0.00
Comm    | 0          | 0          | 0          |   0.0 |  0.00
Output  | 0          | 0          | 0          |   0.0 |  0.00
Modify  | 0          | 0          | 0          |   0.0 |  0.00
Other   |            | 9.537e-07  |            |       |100.00

Nlocal:        54.0000 ave          54 max          54 min
Histogram: 1 0 0 0 0 0 0 0 0 0
Nghost:        0.00000 ave           0 max           0 min
Histogram: 1 0 0 0 0 0 0 0 0 0
Neighs:        0.00000 ave           0 max           0 min
Histogram: 1 0 0 0 0 0 0 0 0 0

Total # of neighbors = 0
Ave neighs/atom = 0.0000000
Neighbor list builds = 0
Dangerous builds = 0
Total wall time: 0:00:21
