This line is left blank
 
      24  atoms
 
       1  atom types
 
     -10.00000    44.00800  xlo xhi
     0.00000     2.83400  ylo yhi
     0.00000     2.83400  zlo zhi
 
Masses
 
       1    55.84500
 
Atoms
 
      1      1      0.000000      0.000000      0.000000
      2      1      1.417000      1.417000      1.417000
      3      1      2.834000      0.000000      0.000000
      4      1      4.251000      1.417000      1.417000
      5      1      5.668000      0.000000      0.000000
      6      1      7.085000      1.417000      1.417000
      7      1      8.502000      0.000000      0.000000
      8      1      9.919000      1.417000      1.417000
      9      1     11.336000      0.000000      0.000000
     10      1     12.753000      1.417000      1.417000
     11      1     14.170000      0.000000      0.000000
     12      1     15.587000      1.417000      1.417000
     13      1     17.004000      0.000000      0.000000
     14      1     18.421000      1.417000      1.417000
     15      1     19.838000      0.000000      0.000000
     16      1     21.255000      1.417000      1.417000
     17      1     22.672000      0.000000      0.000000
     18      1     24.089000      1.417000      1.417000
     19      1     25.506000      0.000000      0.000000
     20      1     26.923000      1.417000      1.417000
     21      1     28.340000      0.000000      0.000000
     22      1     29.757000      1.417000      1.417000
     23      1     31.174000      0.000000      0.000000
     24      1     32.591000      1.417000      1.417000
