This line is left blank
 
      32  atoms
 
       1  atom types
 
     -10.00000    42.06305  xlo xhi
     0.00000     4.00788  ylo yhi
     0.00000     2.83400  zlo zhi
 
Masses
 
       1    55.84500
 
Atoms
 
      1      1      0.000000      2.003941      1.417000
      2      1      0.000000      0.000000      0.000000
      3      1      2.003941      0.000000      1.417000
      4      1      2.003941      2.003941      0.000000
      5      1      4.007881      2.003941      1.417000
      6      1      4.007881      0.000000      0.000000
      7      1      6.011822      0.000000      1.417000
      8      1      6.011822      2.003941      0.000000
      9      1      8.015762      2.003941      1.417000
     10      1      8.015762      0.000000      0.000000
     11      1     10.019703      0.000000      1.417000
     12      1     10.019703      2.003941      0.000000
     13      1     12.023644      2.003941      1.417000
     14      1     12.023644      0.000000      0.000000
     15      1     14.027584      0.000000      1.417000
     16      1     14.027584      2.003941      0.000000
     17      1     16.031525      2.003941      1.417000
     18      1     16.031525      0.000000      0.000000
     19      1     18.035466      0.000000      1.417000
     20      1     18.035466      2.003941      0.000000
     21      1     20.039406      2.003941      1.417000
     22      1     20.039406      0.000000      0.000000
     23      1     22.043347      0.000000      1.417000
     24      1     22.043347      2.003941      0.000000
     25      1     24.047287      2.003941      1.417000
     26      1     24.047287      0.000000      0.000000
     27      1     26.051228      0.000000      1.417000
     28      1     26.051228      2.003941      0.000000
     29      1     28.055169      2.003941      1.417000
     30      1     28.055169      0.000000      0.000000
     31      1     30.059109      0.000000      1.417000
     32      1     30.059109      2.003941      0.000000
