This line is left blank
 
      96  atoms
 
       1  atom types
 
     0.00000    39.26906  xlo xhi
     0.00000     4.00788  ylo yhi
     0.00000     6.94185  zlo zhi
 
Masses
 
       1    55.84500
 
Atoms
 
      1      1      0.818105      2.003941      5.784878
      2      1      0.818105      0.000000      2.313951
      3      1      0.000000      2.003941      3.470927
      4      1      2.454316      2.003941      3.470927
      5      1      1.636211      0.000000      4.627903
      6      1      4.090527      0.000000      4.627903
      7      1      3.272421      2.003941      5.784878
      8      1      5.726737      2.003941      5.784878
      9      1      0.000000      0.000000      0.000000
     10      1      2.454316      0.000000      0.000000
     11      1      1.636211      2.003941      1.156976
     12      1      4.090527      2.003941      1.156976
     13      1      3.272421      0.000000      2.313951
     14      1      5.726737      0.000000      2.313951
     15      1      4.908632      2.003941      3.470927
     16      1      7.362948      2.003941      3.470927
     17      1      6.544843      0.000000      4.627903
     18      1      8.999159      0.000000      4.627903
     19      1      8.181053      2.003941      5.784878
     20      1     10.635369      2.003941      5.784878
     21      1      4.908632      0.000000      0.000000
     22      1      7.362948      0.000000      0.000000
     23      1      6.544843      2.003941      1.156976
     24      1      8.999159      2.003941      1.156976
     25      1      8.181053      0.000000      2.313951
     26      1     10.635369      0.000000      2.313951
     27      1      9.817264      2.003941      3.470927
     28      1     12.271580      2.003941      3.470927
     29      1     11.453475      0.000000      4.627903
     30      1     13.907791      0.000000      4.627903
     31      1     13.089685      2.003941      5.784878
     32      1     15.544001      2.003941      5.784878
     33      1      9.817264      0.000000      0.000000
     34      1     12.271580      0.000000      0.000000
     35      1     11.453475      2.003941      1.156976
     36      1     13.907791      2.003941      1.156976
     37      1     13.089685      0.000000      2.313951
     38      1     15.544001      0.000000      2.313951
     39      1     14.725896      2.003941      3.470927
     40      1     17.180212      2.003941      3.470927
     41      1     16.362107      0.000000      4.627903
     42      1     18.816423      0.000000      4.627903
     43      1     17.998317      2.003941      5.784878
     44      1     20.452633      2.003941      5.784878
     45      1     14.725896      0.000000      0.000000
     46      1     17.180212      0.000000      0.000000
     47      1     16.362107      2.003941      1.156976
     48      1     18.816423      2.003941      1.156976
     49      1     17.998317      0.000000      2.313951
     50      1     20.452633      0.000000      2.313951
     51      1     19.634528      2.003941      3.470927
     52      1     22.088844      2.003941      3.470927
     53      1     21.270739      0.000000      4.627903
     54      1     23.725055      0.000000      4.627903
     55      1     22.906949      2.003941      5.784878
     56      1     25.361265      2.003941      5.784878
     57      1     19.634528      0.000000      0.000000
     58      1     22.088844      0.000000      0.000000
     59      1     21.270739      2.003941      1.156976
     60      1     23.725055      2.003941      1.156976
     61      1     22.906949      0.000000      2.313951
     62      1     25.361265      0.000000      2.313951
     63      1     24.543160      2.003941      3.470927
     64      1     26.997476      2.003941      3.470927
     65      1     26.179371      0.000000      4.627903
     66      1     28.633687      0.000000      4.627903
     67      1     27.815581      2.003941      5.784878
     68      1     30.269897      2.003941      5.784878
     69      1     24.543160      0.000000      0.000000
     70      1     26.997476      0.000000      0.000000
     71      1     26.179371      2.003941      1.156976
     72      1     28.633687      2.003941      1.156976
     73      1     27.815581      0.000000      2.313951
     74      1     30.269897      0.000000      2.313951
     75      1     29.451792      2.003941      3.470927
     76      1     31.906108      2.003941      3.470927
     77      1     31.088003      0.000000      4.627903
     78      1     33.542319      0.000000      4.627903
     79      1     32.724213      2.003941      5.784878
     80      1     35.178529      2.003941      5.784878
     81      1     29.451792      0.000000      0.000000
     82      1     31.906108      0.000000      0.000000
     83      1     31.088003      2.003941      1.156976
     84      1     33.542319      2.003941      1.156976
     85      1     32.724213      0.000000      2.313951
     86      1     35.178529      0.000000      2.313951
     87      1     34.360424      2.003941      3.470927
     88      1     36.814740      2.003941      3.470927
     89      1     35.996635      0.000000      4.627903
     90      1     38.450951      0.000000      4.627903
     91      1     37.632845      2.003941      5.784878
     92      1     34.360424      0.000000      0.000000
     93      1     36.814740      0.000000      0.000000
     94      1     35.996635      2.003941      1.156976
     95      1     38.450951      2.003941      1.156976
     96      1     37.632845      0.000000      2.313951
